! Touchstone file exported from HFSS 2024.2.0
!        File:           C:/Users/vaintrug/Documents/Ansoft_Workspace/Comparaison_Calculs_HFSS/1_VarPort.aedt
!        Generated:      03:22:17 PM Jan 21, 2025
!        Design:         1_NoDeembed_FacePortFree
!        Project:        1_VarPort
!        Setup:          Setup1
!        Solution:       Sweep
!
! Variables:
!        $Lenght = 1500um
!        $PortSize = 230um
!        Gap = 30um
!        Th = 2um
!        X_centralStrip = 20um
!        X_masse = 200um
!        Y_Sub = 1.5mm
!        Z_Box = 400um
!        Z_Sub = 200um
!
# GHz S MA R 50.000000
! Terminal data exported
! Port[1] = 1
! Port[2] = 2
1                              0.0211464407904598 63.0163880006132 0.989090040937217 -4.43136746886418 0.989090040937217 -4.43136746886418 0.0211483644615842 63.005686296167  
! Gamma         5.77429817055489 49.8157169174882 6.05077129232492 49.9899237150606 
! Port Impedance         50               0                50               0                
2                              0.0378989620991594 69.8321188314448 0.986556566417943 -8.76232392901421 0.986556566417944 -8.76232392901421 0.0378982006848803 69.8096391983764 
! Gamma         7.45548671136073 98.3837982523476 7.91372513614709 98.508803305432  
! Port Impedance         50               0                50               0                
3                              0.0550004976046047 70.1048863514688 0.984046198931202 -13.0970688141558 0.984046198931203 -13.0970688141558 0.0549953108706999 70.0754059323159 
! Gamma         8.82712056551395 147.015484062573 9.40281632314135 147.029400909946 
! Port Impedance         50               0                50               0                
4                              0.0719551774165902 68.2159391024894 0.981268326359635 -17.4294943387062 0.981268326359635 -17.4294943387062 0.0719451491276602 68.1797111812352 
! Gamma         10.1328731866613 195.710144424127 10.78690232539   195.602462397628 
! Port Impedance         50               0                50               0                
5                              0.08850084127506 65.3833813776234 0.9781826029254  -21.7539268818237 0.978182602925399 -21.7539268818237 0.0884855013971877 65.3401102507089 
! Gamma         11.4353205596472 244.432021033401 12.1486891961654 244.203734051445 
! Port Impedance         50               0                50               0                
6                              0.104468811799254 62.0704909906945 0.974805442949117 -26.0663778207031 0.974805442949118 -26.066377820703 0.104447569942185 62.0198764674757 
! Gamma         12.752455429681  293.160388107758 13.516596777654  292.813870294302 
! Port Impedance         50               0                50               0                
7                              0.119732678467323 58.489967068774  0.971173046120478 -30.3638985642574 0.971173046120478 -30.3638985642574 0.119704853972453 58.4317501603185 
! Gamma         14.0894369868966 341.883501946644 14.9010303683844 341.420279270943 
! Port Impedance         50               0                50               0                
8                              0.134190754224112 54.7528830553223 0.967330755981644 -34.6442977074705 0.967330755981644 -34.6442977074705 0.134155600442506 54.686833657018  
! Gamma         15.4468651396692 390.594283406983 16.30525998714   390.014720504874 
! Port Impedance         50               0                50               0                
9                              0.147759186068267 50.9228309674648 0.963328464229466 -38.9060222373653 0.963328464229467 -38.9060222373654 0.147715906433675 50.8487337849376 
! Gamma         16.8234464250578 439.288282286356 17.7293404839134 438.591718075542 
! Port Impedance         50               0                50               0                
10                             0.160368694772326 47.0387266716357 0.959217870230366 -43.1480959042594 0.959217870230367 -43.1480959042594 0.160316454370959 46.9563711797819 
! Gamma         18.2170382394541 487.962696435959 19.1717684725303 487.147657160023 
! Port Impedance         50               0                50               0                
11                             0.171962626820121 43.1255447510942 0.955050514636233 -47.3700743636385 0.955050514636233 -47.3700743636385 0.171900561903655 43.0347184920323 
! Gamma         19.6251337975623 536.615855105963 20.630281492614  535.680252545872 
! Port Impedance         50               0                50               0                
12                             0.182495494720225 39.1998374904033 0.950876261943025 -51.5720025267484 0.950876261943026 -51.5720025267484 0.182422721456526 39.1003214573705 
! Gamma         21.0451201337507 585.24691505471  22.1022861407035 584.188211943188 
! Port Impedance         50               0                50               0                
13                             0.191931708211424 35.272787984364  0.946742117058053 -55.7543695772354 0.946742117058052 -55.7543695772354 0.191847331313167 35.1643532537169 
! Gamma         22.4744286976271 633.855660829828 23.5851055823622 632.671004384753 
! Port Impedance         50               0                50               0                
14                             0.200244399415605 31.352009937705  0.942691321493298 -59.9180610545786 0.942691321493298 -59.9180610545786 0.200147520923637 31.2344150047931 
! Gamma         23.9106272180605 682.442360231389 25.076129006033  681.128688868656 
! Port Impedance         50               0                50               0                
15                             0.207414323353141 27.4426711495843 0.938762690756786 -64.0643088364571 0.938762690756785 -64.064308836457 0.207304051664945 27.3156596405037 
! Gamma         25.3514753233274 731.007652091062 26.5729026901126 729.561780351104 
! Port Impedance         50               0                50               0                
16                             0.213428843454316 23.5482331957806 0.934990157861924 -68.194640249631 0.934990157861924 -68.194640249631 0.213304302589772 23.4115317384995 
! Gamma         26.7949557974857 779.552455401386 28.0731834567514 777.971141214014 
! Port Impedance         50               0                50               0                
17                             0.218281019075127 19.6709639483294 0.931402488793743 -72.3108274495606 0.931402488793744 -72.3108274495606 0.218141358128717 19.5242800738951 
! Gamma         28.2392886550802 828.077894133179 29.5749668482533 826.357891713084 
! Port Impedance         50               0                50               0                
18                             0.221968810572633 15.8123111318763 0.928023137467386 -76.4148379581821 0.928023137467385 -76.4148379581821 0.221813213292255 15.6553311038411 
! Gamma         29.6829328782151 876.58523483315  31.0764976276631 874.723335838244 
! Port Impedance         50               0                50               0                
19                             0.224494412921449 11.9731891101066 0.924870210765097 -80.508786955846 0.924870210765097 -80.508786955846 0.224322107351157 11.8055756061656 
! Gamma         31.1245794319859 925.075834996318 32.5762681248653 923.068899947447 
! Port Impedance         50               0                50               0                
20                             0.225863723730135 8.15421155235514 0.921956518383827 -84.5948916586932 0.921956518383827 -84.5948916586932 0.225673991865708 7.97560113384853 
! Gamma         32.5631382960115 973.551100882817 34.0730081828967 971.396082659282 
! Port Impedance         50               0                50               0                
21                             0.226085946712645 4.35589184342722 0.919289687032112 -88.6754279207757 0.919289687032112 -88.6754279207757 0.225878134123303 4.16589216012724 
! Gamma         33.9977216218263 1022.0124537081  35.5656696670487 1019.70641443093 
! Port Impedance         50               0                50               0                
22                             0.225173328013699 0.57882732425977 0.91687232342144 -92.75268905074  0.916872323421438 -92.75268905074  0.224946853371484 0.377013958360744 
! Gamma         35.4276247633742 1070.46130299411 37.0534076906875 1068.00142557154 
! Port Impedance         50               0                50               0                
23                             0.223141019917117 -3.17611934299868 0.914702215219679 -96.8289467547124 0.914702215219679 -96.8289467547124 0.222895384371842 -3.39020644787493 
! Gamma         36.852306366512  1118.89902624667 38.5355601901213 1116.28262153552 
! Port Impedance         50               0                50               0                
24                             0.220007064106291 -6.90762894056965 0.912772563485775 -100.906414111615 0.912772563485775 -100.906414111615 0.219741860407839 -7.13448955946794 
! Gamma         38.2713685030558 1167.32695392344 40.0116270423809 1164.55146434173 
! Port Impedance         50               0                50               0                
25                             0.215792485553682 -10.6137104809255 0.911072243703357 -104.987210480582 0.911072243703358 -104.987210480582 0.215507406771129 -10.853888824083 
! Gamma         39.6845375053415 1215.74635884545 41.4812496013289 1212.80935923665 
! Port Impedance         50               0                50               0                
26                             0.210521486892079 -14.2914444740889 0.909586095603952 -109.073328323396 0.909586095603953 -109.073328323396 0.210216334530999 -14.545534599371 
! Gamma         41.0916459611796 1264.1584492732  42.9441911927201 1261.05764552494 
! Port Impedance         50               0                50               0                
27                             0.204221733051443 -17.9366605896911 0.908295244176799 -113.166601987973 0.908295244176801 -113.166601987973 0.203896424247382 -18.205312679567 
! Gamma         42.4926161229943 1312.56436494718 44.4003189946475 1309.29759094084 
! Port Impedance         50               0                50               0                
28                             0.196924716761489 -21.5435148144732 0.907177455685785 -117.268678601442 0.907177455685784 -117.268678601442 0.196579290128565 -21.8274423435931 
! Gamma         43.8874449051062 1360.96517544552 45.8495874737983 1357.53038876139 
! Port Impedance         50               0                50               0                
29                             0.188666197642467 -25.103912789399 0.906207533194308 -121.380991333352 0.906207533194308 -121.380991333352 0.188300817162348 -25.403900571954 
! Gamma         45.2761904881215 1409.36188034633 47.2920235012944 1405.75715702689 
! Port Impedance         50               0                50               0                
30                             0.179486713084494 -28.6066949724771 0.90535775582871 -125.504735384243 0.905357755828711 -125.504735384243 0.179101669181967 -28.9236078027022 
! Gamma         46.6589605297484 1457.75541076227 48.7277131290446 1453.97893948401 
! Port Impedance         50               0                50               0                
31                             0.169432169488985 -32.0364453373123 0.904598364996066 -129.640847164904 0.904598364996066 -129.640847164904 0.169027876093445 -32.3712363484408 
! Gamma         48.0359018989427 1506.14663184244 50.1567899955811 1502.19670768575 
! Port Impedance         50               0                50               0                
32                             0.158554543199343 -35.3716887800529 0.903898098860992 -133.789987198863 0.903898098860992 -133.789987198863 0.158131529110458 -35.7254052590519 
! Gamma         49.4071918114596 1554.53634599721 51.5794252516822 1550.41136400879 
! Port Impedance         50               0                50               0                
33                             0.146912760509698 -38.5820629841758 0.903224773789197 -137.952527344033 0.903224773789197 -137.952527344033 0.146471652672545 -38.9558443089048 
! Gamma         50.7730302820702 1602.92529652289 52.9958189081288 1598.62374522558 
! Port Impedance         50               0                50               0                
34                             0.134573906473016 -41.6237024298625 0.9025459081629  -142.128542938261 0.9025459081629  -142.128542938261 0.134115401859145 -42.0187574071809 
! Gamma         52.1336337376367 1651.31417150414 54.4061924459571 1646.83462648852 
! Port Impedance         50               0                50               0                
35                             0.121615078729855 -44.4313619995581 0.901829380283667 -146.317810452688 0.901829380283667 -146.317810452688 0.121139900495366 -44.8488949975782 
! Gamma         53.489229658789  1699.70360783808 55.8107825896163 1695.04472546991 
! Port Impedance         50               0                50               0                
36                             0.108126568914129 -46.9042729784424 0.901044108139452 -150.519811157712 0.901044108139452 -150.519811157712 0.10763540245916 -47.3452820303916 
! Gamma         54.840052153544  1748.09419522473 57.2098360860399 1743.25470658026 
! Port Impedance         50               0                50               0                
37                             0.094217919366221 -48.8791827650076 0.900160735014265 -154.733741178314 0.900160735014265 -154.733741178314 0.0937113294306133 -49.3439255387315 
! Gamma         56.1863383119292 1796.486480082   58.6036053875907 1791.46518515134 
! Port Impedance         50               0                50               0                
38                             0.0800306319249021 -50.0752365016413 0.899152301609968 -158.958528145713 0.899152301609968 -158.958528145713 0.0795089930897439 -50.5617789152454 
! Gamma         57.5283252545738 1844.88096932567 59.9923450998444 1839.67673148755 
! Port Impedance         50               0                50               0                
39                             0.0657676682583841 -49.9718240128584 0.897994882845656 -163.192854419305 0.897994882845656 -163.192854419305 0.0652312897055484 -50.4718304871805 
! Gamma         58.866247766582  1893.27813394907 61.3763091069897 1887.88987476276 
! Port Impedance         50               0                50               0                
40                             0.0517702086906811 -47.5142906140375 0.896668166243791 -167.435186603567 0.89666816624379 -167.435186603567 0.0512205550866041 -47.9996796612663 
! Gamma         60.2003364393598 1941.67841239048 62.7557482680258 1936.10510672392 
! Port Impedance         50               0                50               0                
41                             0.0387431755134312 -40.377591685631 0.895155948989   -171.683810816202 0.895155948989   -171.683810816202 0.0381898116227094 -40.7554832169583 
! Gamma         61.5308162278474 1990.0822136946  64.1309086019013 1984.32288514079 
! Port Impedance         50               0                50               0                
42                             0.0284443498513969 -23.660598404936 0.893446532545333 -175.936872885056 0.893446532545334 -175.936872885056 0.027938803120791 -23.6581884480625 
! Gamma         62.8579053691025 2038.4899204232  65.502029890223  2032.54363705795 
! Port Impedance         50               0                50               0                
43                             0.0247787134887583 5.94667235789651 0.891532997126227 179.807577587872 0.891532997126227 179.807577587872 0.0244785731349001 6.54063223643559 
! Gamma         64.1818145947    2086.90189135012 66.869344619789  2080.76776179261 
! Port Impedance         50               0                50               0                
44                             0.0302292480812244 33.1663939933106 0.889413343148537 175.551540565978 0.889413343148537 175.551540565978 0.0301993482059237 33.6947339701946 
! Gamma         65.5027465869957 2135.31846392161 68.233077221221  2128.99563369836 
! Port Impedance         50               0                50               0                
45                             0.0411715166777349 47.1575290964124 0.887090492741723 171.297017728279 0.887090492741724 171.297017728279 0.0412930688525523 47.3561332157044 
! Gamma         66.8208956407522 2183.73995651963 69.5934435489522 2177.22760470128 
! Port Impedance         50               0                50               0                
46                             0.0541602746572124 52.9418258210678 0.884572150948392 167.045964915853 0.884572150948392 167.045964915853 0.054347408646132 52.9078039510039 
! Gamma         68.1364474840314 2232.1666705021  70.9506505507015 2225.46400663184 
! Port Impedance         50               0                50               0                
47                             0.0677773917933813 54.7622836892037 0.881870532929256 162.800246338244 0.881870532929256 162.800246338244 0.0679884023626686 54.5772663667202 
! Gamma         69.4495792339006 2280.59889206285 72.3048961078511 2273.70515332673 
! Port Impedance         50               0                50               0                
48                             0.0814402108012613 54.5529394499301 0.879001969700005 158.561591923608 0.879001969700006 158.561591923608 0.0816528651800057 54.2618594141748 
! Gamma         70.7604594552624 2329.03689392281 73.6563690033199 2321.95134255456 
! Port Impedance         50               0                50               0                
49                             0.0948568898506154 53.2053291426217 0.875986410198779 154.331559028622 0.875986410198779 154.331559028622 0.0950573504363193 52.8327800792845 
! Gamma         72.0692483064758 2377.48093682893 75.0052489887369 2370.20285776209 
! Port Impedance         50               0                50               0                
50                             0.107850639444552 51.1691501456797 0.872846841415281 150.111499512523 0.872846841415282 150.111499512523 0.108029033434007 50.729121531486  
! Gamma         73.3760977455244 2425.93127093643 76.3517069421539 2418.45996963983 
! Port Impedance         50               0                50               0                
51                             0.120298318089868 48.6917594978173 0.869608650659262 145.902532913335 0.869608650659263 145.902532913335 0.120446822997731 48.1924291607878 
! Gamma         74.681151780597  2474.38813702884 77.6959050839675 2466.72293755191 
! Port Impedance         50               0                50               0                
52                             0.132106147688776 45.91939265312   0.866298954765231 141.705526198525 0.866298954765231 141.705526198525 0.132218083520466 45.3655339968945 
! Gamma         75.9845467686657 2522.85176761526 79.0379972429591 2514.99201080577 
! Port Impedance         50               0                50               0                
53                             0.143198962162376 42.9437204119359 0.862945920178934 137.521080280618 0.862945920178934 137.521080280618 0.143268323963358 42.3379749343444 
! Gamma         77.2864117235554 2571.32238792547 80.3781291586578 2563.26742980628 
! Port Impedance         50               0                50               0                
54                             0.153514937941717 39.8250142015611 0.859578095732351 133.34952323659  0.859578095732351 133.34952323659  0.15353613736479 39.1685987660486 
! Gamma         78.5868686523158 2619.80021677703 81.7164388080867 2611.54942709038 
! Port Impedance         50               0                50               0                
55                             0.163002739286182 36.6044811424594 0.856223776770462 129.190909950587 0.856223776770461 129.190909950587 0.162970452192856 35.8975973128676 
! Gamma         79.8860328915514 2668.28546738215 83.0530567491387 2659.83822825233 
! Port Impedance         50               0                50               0                
56                             0.17161979929987 33.3112244182056 0.852910415556124 125.04502772389  0.852910415556123 125.04502772389  0.171528869907029 32.5533016976644 
! Gamma         81.184013454538  2716.77834802336 84.3881064735693 2708.13405276661 
! Port Impedance         50               0                50               0                
57                             0.17933116533015 29.9663731214463 0.849664088895501 120.911407264665 0.849664088895501 120.911407264665 0.179176541459698 29.1562144103353 
! Gamma         82.4809133734885 2765.27906270391 85.7217047624803 2756.43711473914 
! Port Impedance         50               0                50               0                
58                             0.186108641691354 26.5856443420082 0.846509030041768 116.789338395471 0.846509030041768 116.789338395471 0.185885327217497 25.7215105299005 
! Gamma         83.7768300350933 2813.78781169483 87.0539620438767 2804.74762356437 
! Port Impedance         50               0                50               0                
59                             0.191930102401016 23.1809991003438 0.84346722841419 112.677889777474 0.843467228414191 112.677889777474 0.191633118806806 22.2606534132352 
! Gamma         85.0718555119931 2862.30479202713 88.3849827431633 2853.06578451632 
! Port Impedance         50               0                50               0                
60                             0.196778914059197 19.7617556077646 0.840558097693389 108.575931951344 0.840558097693389 108.575931951344 0.196403266048191 18.7824794186581 
! Gamma         86.3660768864327 2910.83019792852 89.7148656260286 2901.39179928326 
! Port Impedance         50               0                50               0                
61                             0.20064344240605 16.3353682085032 0.837798210552859 104.482163029392 0.837798210552857 104.482163029392 0.200184084113071 15.2939548697408 
! Gamma         87.6595765554148 2959.36422122928 91.0437041350867 2949.72586642538 
! Port Impedance         50               0                50               0                
62                             0.203516632833483 12.9079962513407 0.835201096664338 100.395136421968 0.835201096664338 100.395136421968 0.202968431957334 11.8007263661654 
! Gamma         88.9524325323482 3007.90705168963 92.3715867112382 2998.06818180824 
! Port Impedance         50               0                50               0                
63                             0.205395663103293 9.48494001143252 0.83277709968054 96.3132900409086 0.83277709968054 96.3132900409086 0.204753360575195 8.30753945276475 
! Gamma         90.244718729458  3056.45887731941 93.6985971069799 3046.41893896565 
! Port Impedance         50               0                50               0                
64                             0.206281669943727 6.07099373617129 0.830533288567404 92.2349764943655 0.830533288567404 92.2349764943655 0.205539832686391 4.81857416937298 
! Gamma         91.536505229448  3105.01988464424 95.0248146827877 3094.77832942926 
! Port Impedance         50               0                50               0                
65                             0.20617955231019 2.67075025853131 0.82847341881058 88.1584938415366 0.82847341881058 88.1584938415366 0.205332516285801 1.33773060589945 
! Gamma         92.827858546603  3153.59025894775 96.3503146933251 3143.14654303484 
! Port Impedance         50               0                50               0                
66                             0.205097853824196 -0.711117142243102 0.826597939593785 84.0821165325637 0.826597939593785 84.0821165325637 0.204139653928519 -2.13111114195145 
! Gamma         94.1188418656146 3202.17018448104 97.6751685575315 3191.52376817195 
! Port Impedance         50               0                50               0                
67                             0.203048726316801 -4.06957426748943 0.824904043843166 80.0041261982019 0.824904043843166 80.0041261982019 0.201973008693615 -5.5838366440354 
! Gamma         95.4095152774114 3250.75984465305 98.9994441175662 3239.91019201652 
! Port Impedance         50               0                50               0                
68                             0.200047975738881 -7.39892654979109 0.823385758981573 75.9228419761155 0.823385758981574 75.9228419761154 0.198847886648755 -9.01582975617566 
! Gamma         96.6999359949051 3299.35942220096 100.323205879273 3288.30600075124 
! Port Impedance         50               0                50               0                
69                             0.196115191429244 -10.6924783736372 0.822034077189744 71.8366500713066 0.822034077189743 71.8366500713066 0.194783234780047 -12.4216719934663 
! Gamma         97.9901585583213 3347.96909932709 101.646515246639 3336.71137972718 
! Port Impedance         50               0                50               0                
70                             0.191273960350431 -13.9421237740887 0.820837124819403 67.7440322411189 0.820837124819403 67.7440322411189 0.189801813069523 -15.7947839528731 
! Gamma         99.2802350283603 3396.5890578347  102.969430734085 3385.12651364192 
! Port Impedance         50               0                50               0                
71                             0.185552169958183 -17.13783185435  0.819780371240523 63.6435928756844 0.819780371240523 63.6435928756844 0.183930440189147 -19.1269755563764 
! Gamma         100.570215167264 3445.21947924429 104.292008175115 3433.5515866744  
! Port Impedance         50               0                50               0                
72                             0.178982407819895 -20.2669748842002 0.818846877750147 59.5340843143149 0.818846877750146 59.5340843143149 0.1772003147922  -22.4078574495524 
! Gamma         101.8601466084   3493.8605448879  105.614300911407 3481.9867826184  
! Port Impedance         50               0                50               0                
73                             0.171602474599247 -23.313422155436 0.818017587130413 55.4144300053871 0.818017587130414 55.4144300053872 0.169647419938733 -25.6240419722378 
! Gamma         103.150075015236 3542.51243600684 106.936359974288 3530.43228499279 
! Port Impedance         50               0                50               0                
74                             0.163456042211114 -26.2562823087585 0.817271653991052 51.2837450798625 0.817271653991051 51.2837450798625 0.161313028821694 -28.7580222874677 
! Gamma         104.440044227833 3591.17533382303 108.258234254013 3578.8882771401  
! Port Impedance         50               0                50               0                
75                             0.154593515844005 -29.0681105285142 0.816586815110467 47.1413538806014 0.816586815110468 47.1413538806014 0.152244349707331 -31.7865507171488 
! Gamma         105.730096404968 3639.84941961525 109.579970656295 3627.35494232288 
! Port Impedance         50               0                50               0                
76                             0.145073205900756 -31.7122861223623 0.815939797639331 42.9868039726856 0.815939797639331 42.9868039726856 0.142495384121907 -34.6782199144561 
! Gamma         107.020272150855 3688.53487478027 110.901614253516 3675.83246379281 
! Port Impedance         50               0                50               0                
77                             0.134963000804538 -34.1390771209004 0.815306761259069 38.8198761606186 0.815306761259068 38.8198761606186 0.132128139584885 -37.3897402968693 
! Gamma         108.310610636977 3737.23188088397 112.223208419638 3724.32102487495 
! Port Impedance         50               0                50               0                
78                             0.124342886641883 -36.2795813247142 0.814663768322795 34.6405900667717 0.814663768322796 34.6405900667716 0.12121446647192 -39.860018408149 
! Gamma         109.601149713807 3785.94061971735 113.5447949614   3772.82080902184 
! Port Impedance         50               0                50               0                
79                             0.113308950839168 -38.0361608175597 0.813987273735921 30.4492048808134 0.813987273735921 30.4492048808134 0.109839043094275 -42.0003971642596 
! Gamma         110.89192601707  3834.66127333569 114.866414239266 3821.33199986671 
! Port Impedance         50               0                50               0                
80                             0.101980068699412 -39.2669938067095 0.813254624071968 26.2462149784083 0.813254624071969 26.2462149784083 0.0981045607488749 -43.6779490286915 
! Gamma         112.182975063478 3883.3940241034  116.188105278508 3869.8547812922  
! Port Impedance         50               0                50               0                
81                             0.0905095784841372 -39.760739101129 0.812444553338756 22.0323402300676 0.812444553338757 22.0323402300676 0.0861413111889906 -44.6857367860318 
! Gamma         113.47433134204  3932.1390547263  117.509905874756 3918.3893374554  
! Port Impedance         50               0                50               0                
82                             0.0791064321490859 -39.1951734872208 0.811537661145452 17.8085109729735 0.811537661145453 17.8085109729736 0.0741260147145965 -44.6879536868026 
! Gamma         114.76602840018  3980.89654828523 118.831852692862 3966.9358528483  
! Port Impedance         50               0                50               0                
83                             0.0680743421357632 -37.0736602540382 0.810516857980169 13.5758477951351 0.810516857980169 13.5758477951351 0.0623209743448042 -43.1169278024729 
! Gamma         116.058098919501 4029.66668827006 120.153981355242 4015.49451232363 
! Port Impedance         50               0                50               0                