! Touchstone file exported from HFSS 2024.2.0
!        File:           C:/Users/vaintrug/Documents/Ansoft_Workspace/Comparaison_Calculs_HFSS/1_VarPort.aedt
!        Generated:      03:22:19 PM Jan 21, 2025
!        Design:         1_NoDeembed_FacePortFree
!        Project:        1_VarPort
!        Setup:          Setup1
!        Solution:       Sweep
!
! Variables:
!        $Lenght = 2000um
!        $PortSize = 310um
!        Gap = 30um
!        Th = 2um
!        X_centralStrip = 20um
!        X_masse = 200um
!        Y_Sub = 2mm
!        Z_Box = 400um
!        Z_Sub = 200um
!
# GHz S MA R 50.000000
! Terminal data exported
! Port[1] = 1
! Port[2] = 2
1                              0.0270878008104828 60.8015296963643 0.985448428789751 -5.89533292698678 0.985448428789751 -5.89533292698678 0.027086387016793 60.7915702705526 
! Gamma         6.12509611452109 50.1394943406251 6.2500872445914  50.028043855196  
! Port Impedance         50               0                50               0                
2                              0.0481215850260326 66.5515141760533 0.981931917738701 -11.6567018716335 0.981931917738702 -11.6567018716335 0.0481179870053595 66.5354713920216 
! Gamma         7.97961884464504 98.8235217309366 8.18016695093689 98.4572462437233 
! Port Impedance         50               0                50               0                
3                              0.0693973705501406 65.5987201966721 0.978385758617025 -17.418878483152 0.978385758617025 -17.418878483152 0.0693918276862079 65.574865476535  
! Gamma         9.44183729765266 147.515844545571 9.67846744616894 146.881159471309 
! Port Impedance         50               0                50               0                
4                              0.0901628842005719 62.4190094737633 0.974449391696666 -23.1724469865465 0.974449391696665 -23.1724469865465 0.0901547510981399 62.3865695706965 
! Gamma         10.7989758334802 196.277547556859 11.0537442071783 195.377545959206 
! Port Impedance         50               0                50               0                
5                              0.109984224050193 58.2730594400406 0.970102105655645 -28.9085198561959 0.970102105655645 -28.9085198561959 0.109972620029509 58.231613025434  
! Gamma         12.1394268572841 245.075821025753 12.4056639397528 243.914614592214 
! Port Impedance         50               0                50               0                
6                              0.128567458487109 53.6441622956446 0.965404993182471 -34.6209773342265 0.965404993182471 -34.6209773342265 0.128551454999114 53.5933282222887 
! Gamma         13.4907110891949 293.886433791923 13.7662985349946 292.466599979078 
! Port Impedance         50               0                50               0                
7                              0.145691265426818 48.7553327673441 0.960448060112507 -40.3057333189925 0.960448060112507 -40.3057333189925 0.145669929363382 48.6946746275771 
! Gamma         14.8616045522512 342.694767939787 15.1462694141114 341.017534457057 
! Port Impedance         50               0                50               0                
8                              0.161183220197906 43.7232396136634 0.955332635279308 -45.960387734914 0.955332635279308 -45.960387734914 0.161155618758349 43.6522297709135 
! Gamma         16.2541126613588 391.491846997064 16.5483319101865 389.557501541059 
! Port Impedance         50               0                50               0                
9                              0.174909529910184 38.6144385336553 0.950162254350955 -51.5840429335487 0.950162254350955 -51.5840429335487 0.174874723647045 38.5324371368077 
! Gamma         17.6674403244664 440.271997853059 17.971962104535  438.080198928237 
! Port Impedance         50               0                50               0                
10                             0.186769045495774 33.4691945235613 0.945036577506244 -57.1771556458701 0.945036577506243 -57.1771556458702 0.18672607649309 33.3754304390171 
! Gamma         19.0995383844999 489.031626384924 19.4151604467353 486.581615943433 
! Port Impedance         50               0                50               0                
11                             0.196688707441329 28.3128113950629 0.940046973343192 -62.741381751771 0.940046973343192 -62.741381751771 0.196636584326452 28.2063602674178 
! Gamma         20.5478032698931 537.768549461025 20.8752658646499 535.059297427569 
! Port Impedance         50               0                50               0                
12                             0.204619580715203 23.1615718071543 0.935273333160962 -68.279404705553 0.935273333160962 -68.279404705553 0.204557260626899 23.0413287959162 
! Gamma         22.0094341133663 586.481600247261 22.3493700377891 583.511905300675 
! Port Impedance         50               0                50               0                
13                             0.210533304498197 18.0261421127519 0.930781901561259 -73.7947505178463 0.930781901561259 -73.7947505178463 0.210459671537214 17.8907872058037 
! Gamma         23.4816343504682 635.170372215546 23.8345479004465 631.938933527141 
! Port Impedance         50               0                50               0                
14                             0.214418997664914 12.9137043708374 0.926623956398209 -79.2915956155724 0.926623956398209 -79.2915956155723 0.214332836903617 12.7616576596864 
! Gamma         24.9617308314137 683.835038099737 25.3279933813522 680.340507765479 
! Port Impedance         50               0                50               0                
15                             0.216280707153303 7.82942268030066 0.922835182828573 -84.7745738872371 0.922835182828573 -84.7745738872371 0.216180672828923 7.65878627648629 
! Gamma         26.4472452549946 732.476212954076 26.8270996426001 728.717233957615 
! Port Impedance         50               0                50               0                
16                             0.216135470904093 2.77756304192755 0.919435599540991 -90.2485879049128 0.919435599540992 -90.2485879049128 0.216020046694232 2.58604471936281 
! Gamma         27.9359347094855 781.094845557674 28.329504635038  777.070079733606 
! Port Impedance         50               0                50               0                
17                             0.214012031680139 -2.23754451356176 0.916429917414855 -95.7186278332515 0.916429917414855 -95.7186278332515 0.213879479945762 -2.45273286399994 
! Gamma         29.4258108701512 829.692129725583 29.8331131335141 825.400277996651 
! Port Impedance         50               0                50               0                
18                             0.209950202025903 -7.21056694301515 0.913808239328217 -101.18960028452 0.913808239328218 -101.18960028452 0.209798497264173 -7.45284642922199 
! Gamma         30.915144880032  878.26943210985  31.3361024982866 873.709248349294 
! Port Impedance         50               0                50               0                
19                             0.204000850238813 -12.1341278553061 0.911547040277681 -106.666168622213 0.91154704027768 -106.666168622213 0.203827589417305 -12.4077408407125 
! Gamma         32.4024615649393 926.828231820221 32.8369171146934 921.998532667996 
! Port Impedance         50               0                50               0                
20                             0.196226456686828 -16.9975143811241 0.909610394903221 -112.152605919578 0.909610394903221 -112.152605919578 0.19602873483976 -17.3077880843934 
! Gamma         33.8865264658583 975.370072303822 34.3342550105578 970.269742730921 
! Port Impedance         50               0                50               0                
21                             0.186702182258598 -21.7849061799873 0.90795144159672 -117.652661944485 0.907951441596721 -117.652661944485 0.186476414492173 -22.1386299330126 
! Gamma         35.3663285171627 1023.8965219822  35.8270497575771 1018.52451857856 
! Port Impedance         50               0                50               0                
22                             0.175517404750839 -26.4727474007665 0.906514086081067 -123.169446001789 0.906514086081066 -123.169446001789 0.175259062914169 -26.8787263451761 
! Gamma         36.84106003788   1072.40914349288 37.3144492643928 1066.76449539687 
! Port Impedance         50               0                50               0                
23                             0.162777733832872 -31.0255689332653 0.905234951145163 -128.705328078992 0.905234951145162 -128.705328078992 0.162480942434851 -31.4954598854528 
! Gamma         38.3100951760259 1120.90947015659 38.7957932323071 1114.99127813643 
! Port Impedance         50               0                50               0                
24                             0.148607657359863 -35.388908222504 0.904045572512574 -134.26186136852 0.904045572512574 -134.26186136852 0.148264547311773 -35.9385220466926 
! Gamma         39.7729686878765 1169.39898810783 40.2705906032594 1163.20642286386 
! Port Impedance         50               0                50               0                
25                             0.133154316308275 -39.4765032535998 0.902874824081428 -139.839729681964 0.902874824081429 -139.839729681964 0.132753940846272 -40.1279047417376 
! Gamma         41.2293548717799 1217.87912378928 41.7384976142326 1211.41142318666 
! Port Impedance         50               0                50               0                
26                             0.116593766352029 -43.1454097014866 0.901651530500567 -145.438723352106 0.901651530500567 -145.438723352106 0.116120177339404 -43.9304208520517 
! Gamma         42.6790480173521 1266.35123545745 43.1992968461762 1259.60770127595 
! Port Impedance         50               0                50               0                
27                             0.0991434026944207 -46.1434398378726 0.900307194510052 -151.057746856701 0.900307194510051 -151.057746856701 0.0985720010216264 -47.1096247640889 
! Gamma         44.1219439691289 1314.81660811613 44.6528781189843 1307.79660219608 
! Port Impedance         50               0                50               0                
28                             0.0810912358508516 -47.9863674598689 0.898778734801889 -156.694860433939 0.898778734801889 -156.694860433939 0.080381286195502 -49.2069750237739 
! Gamma         45.5580237333524 1363.27645106606 46.0992208875023 1355.97939161897 
! Port Impedance         50               0                50               0                
29                             0.0628773023901301 -47.6342435952118 0.897011102905477 -162.347356461348 0.897011102905477 -162.347356461348 0.0619553160035778 -49.2198446184226 
! Gamma         46.9873383592785 1411.73189758825 47.5383786681195 1404.15725518275 
! Port Impedance         50               0                50               0                
30                             0.0453648609721888 -42.5274585830722 0.894959630261852 -168.011869355401 0.894959630261852 -168.011869355401 0.0440875437226071 -44.5871132964808 
! Gamma         48.4099960265062 1460.18400614474 48.9704650850136 1452.33129983693 
! Port Impedance         50               0                50               0                
31                             0.0308970820494098 -25.9141006364278 0.892591954206426 -173.684515482561 0.892591954206426 -173.684515482561 0.0290268866111691 -27.9285781642533 
! Gamma         49.8261504491719 1508.63376289582 50.3956417904968 1500.50255642717 
! Port Impedance         50               0                50               0                
32                             0.0260052784729628 9.60464484262038 0.889889386856611 -179.361057230546 0.889889386856609 -179.361057230546 0.0238282775557762 10.7814211848548 
! Gamma         51.2359908413472 1557.08208478019 51.8141078979002 1548.67198300926 
! Port Impedance         50               0                50               0                
33                             0.0349470852328751 39.3323525890416 0.886847624075763 174.962916632364 0.886847624075762 174.962916632364 0.0334334416022435 42.2859818780698 
! Gamma         52.6397334853609 1605.52982357342 53.2260910414187 1596.84046883101 
! Port Impedance         50               0                50               0                
34                             0.0505380978384417 50.916854191731  0.883476739545826 169.291803651283 0.883476739545826 169.291803651283 0.0495677605920917 53.4367117321292 
! Gamma         54.0376144468797 1653.97776972865 54.631839765161  1645.00883876562 
! Port Impedance         50               0                50               0                
35                             0.0678768025627248 54.0044638296864 0.879800465456641 163.629803421493 0.87980046545664 163.629803421493 0.0672147871675886 56.0351657950927 
! Gamma         55.4298834245565 1702.42665686278 56.0316169763551 1693.17785776879 
! Port Impedance         50               0                50               0                
36                             0.0853544746478308 53.5108688096691 0.875854818549805 157.980746108899 0.875854818549805 157.980746108899 0.0848818019335673 55.2025839072157 
! Gamma         56.8167987511233 1750.8771660367  57.4256946896788 1741.34823543186 
! Port Impedance         50               0                50               0                
37                             0.102324286602735 51.2951528417084 0.871686180176499 152.347942357799 0.871686180176499 152.347942357799 0.101980026414138 52.755094986844  
! Gamma         58.1986231732468 1799.32993002903 58.8143495775158 1789.52063050356 
! Port Impedance         50               0                50               0                
38                             0.118435213548428 48.1497778746632 0.867348975043281 146.734061345438 0.867348975043281 146.734061345438 0.118185218002128 49.446133596657  
! Gamma         59.5756203614141 1847.78553740046 60.1978593075083 1837.69565521599 
! Port Impedance         50               0                50               0                
39                             0.13345435798362 44.4599604666108 0.862903111554905 141.141041456026 0.862903111554905 141.141041456026 0.133277921338583 45.6371246179722 
! Gamma         60.9480522953865 1896.24453658628 61.5764997750437 1885.87387947073 
! Port Impedance         50               0                50               0                
40                             0.147209904170874 40.4335319106624 0.85841134653969 135.570035620057 0.858411346539689 135.570035620057 0.1470936869157  41.5216750145775 
! Gamma         62.3161769435945 1944.70743950426 62.9505425680744 1934.05583478676 
! Port Impedance         50               0                50               0                
41                             0.159569200150865 36.191977091273  0.853936721034946 130.021391075886 0.853936721034946 130.021391075886 0.159504212475627 37.2125003896184 
! Gamma         63.6802466141864 1993.1747251313  64.3202534425463 1982.24201792722 
! Port Impedance         50               0                50               0                
42                             0.170428758904575 31.8108646363524 0.849540186317124 124.49466142545  0.849540186317125 124.49466142545  0.170408745845615 32.7795606027703 
! Gamma         65.0405066568725 2041.64684276931 65.6858907133245 2030.43289444343 
! Port Impedance         50               0                50               0                
43                             0.179708803737683 27.3395915144132 0.84527850591083 118.988647437994 0.84527850591083 118.988647437994 0.179729326166832 28.2685457057671 
! Gamma         66.3971944971737 2090.12421495566 67.0477043689474 2078.62890179711 
! Port Impedance         50               0                50               0                
44                             0.187349734123327 22.811830587755  0.841202485304893 113.501462240792 0.841202485304893 113.501462240792 0.187407620262504 23.7106147417841 
! Gamma         67.7505389497483 2138.60724041274 68.4059353141254 2126.830452236   
! Port Impedance         50               0                50               0                
45                             0.193309520345223 18.2514671321535 0.837355550695691 108.030616184782 0.837355550695691 108.030616184782 0.193402527121281 19.1279194524104 
! Gamma         69.1007598158099 2187.09629644272 69.7608149675771 2175.03793561585 
! Port Impedance         50               0                50               0                
46                             0.197561652385105 13.6762114562855 0.833772674221336 102.573116757178 0.833772674221336 102.573116757178 0.197688252648561 14.5369689335435 
! Gamma         70.4480675558974 2235.59174135622 71.1125648750847 2223.25172173935 
! Port Impedance         50               0                50               0                
47                             0.200093514885806 9.09996314330391 0.830479626966193 97.1255792795555 0.830479626966193 97.1255792795555 0.200252764733253 9.95084161133097 
! Gamma         71.7926632912776 2284.09391651465 72.4613966922199 2271.47216259977 
! Port Impedance         50               0                50               0                
48                             0.200905157186178 4.53449457581377 0.827492532587587 91.6843446230053 0.827492532587586 91.6843446230053 0.201096617941438 5.38077462665501 
! Gamma         73.1347387215267 2332.60314829252 73.8075122113093 2319.69959449072 
! Port Impedance         50               0                50               0                
49                             0.200008461445003 -0.00922097698674721 0.82481769262906 86.2456007154574 0.82481769262906 86.2456007154574 0.200232162477436 0.837435118287441 
! Gamma         74.474476350562  2381.11974983109 75.1511034873659 2367.93433973409 
! Port Impedance         50               0                50               0                
50                             0.19742671864426 -4.51982685093167 0.822451657894838 80.8055050703033 0.822451657894838 80.8055050703033 0.19768315450205 -3.66792830018965 
! Gamma         75.8120496326421 2429.64402253981 76.4923529892999 2416.176708423   
! Port Impedance         50               0                50               0                
51                             0.193194618991551 -8.98438340081288 0.820381526712122 75.3603058952554 0.820381526712123 75.3603058952554 0.193484779704072 -8.12229726174328 
! Gamma         77.147623242404  2478.17625758975 77.8314340089104 2464.42699988841 
! Port Impedance         50               0                50               0                
52                             0.18735865935131 -13.3869904607133 0.818585458584816 69.9064594937822 0.818585458584815 69.9064594937822 0.187684097577028 -12.5095002461396 
! Gamma         78.4813533995699 2526.71673719375 79.1685108348163 2512.68550407924 
! Port Impedance         50               0                50               0                
53                             0.179977973540401 -17.7070302801322 0.817033398738745 64.4407416631496 0.817033398738744 64.4407416631496 0.180340917756812 -16.8084323849531 
! Gamma         79.8133881895959 2575.26573569793 80.503739254094  2560.95250269787 
! Port Impedance         50               0                50               0                
54                             0.17112561132827 -21.916731626376 0.815688013763663 58.9603506251005 0.815688013763663 58.9603506251005 0.171529141771228 -20.9905770400589 
! Gamma         81.1438679474405 2623.82352070518 81.8372667867026 2609.22827041119 
! Port Impedance         50               0                50               0                
55                             0.160890346235744 -25.97756194029  0.814505839539902 53.4629987840758 0.814505839539901 53.4629987840758 0.161338661864846 -25.0163324337694 
! Gamma         82.4729255943478 2672.39035388713 83.1692332202802 2657.51307573792 
! Port Impedance         50               0                50               0                
56                             0.149379215277833 -29.834578282779 0.813438639010811 47.9469903343502 0.813438639010811 47.9469903343502 0.149878038979   -28.8292713688587 
! Gamma         83.800687053814  2720.96649194837 84.499770904301  2705.80718200346 
! Port Impedance         50               0                50               0                
57                             0.136721261571171 -33.407121737337 0.812434958605116 42.4112815401999 0.812434958605117 42.4112815401999 0.13727846302126 -32.346725099432 
! Gamma         85.1272715838778 2769.55218731769 85.829005195845  2754.11084808525 
! Port Impedance         50               0                50               0                
58                             0.123073537760654 -36.5727038850777 0.811441858527167 36.8555204985348 0.811441858527167 36.8555204985348 0.12370010869594 -35.4435847195392 
! Gamma         86.4527922252528 2818.14768880019 87.1570548828321 2802.42432913117 
! Port Impedance         50               0                50               0                
59                             0.108631765623689 -39.1376394772322 0.810406774759496 31.2800634236536 0.810406774759496 31.2800634236537 0.109343373668027 -37.9230599285725 
! Gamma         87.7773561364725 2866.75324224032 88.4840325287435 2850.74787727062 
! Port Impedance         50               0                50               0                
60                             0.093651268374031 -40.7806784698085 0.809279451332783 25.6859650752768 0.809279451332783 25.6859650752768 0.0944707391673548 -39.4613454000251 
! Gamma         89.1010649323639 2915.36909104048 89.810044880469  2899.08174206592 
! Port Impedance         50               0                50               0                
61                             0.0784920284751875 -40.9398197389272 0.808013862898751 20.0749418969636 0.80801386289875 20.0749418969636 0.079453101291662 -39.4989678378436 
! Gamma         90.4240150644952 2963.99547662264 91.1351932461073 2947.42617116493 
! Port Impedance         50               0                50               0                
62                             0.0637235308638074 -38.5829582628037 0.806570033011755 14.4493077288006 0.806570033011755 14.4493077288006 0.0648749694697686 -37.0290613447699 
! Gamma         91.7462981374278 3012.63263895097 92.4595738454339 2995.78141066859 
! Port Impedance         50               0                50               0                
63                             0.0503772274122457 -31.8112618220786 0.804915645904486 8.81188353256439 0.804915645904485 8.8118835325644  0.0517776316585686 -30.2623993057271 
! Gamma         93.0680013056054 3061.28081684842 93.7832781297478 3044.14770558536 
! Port Impedance         50               0                50               0                
64                             0.0404640655325511 -17.8386107671283 0.803027351461097 3.16588427511115 0.803027351461097 3.16588427511115 0.0421209341109563 -16.7347693835763 
! Gamma         94.3892074781127 3109.94024839316 95.1063931409933 3092.5253002562  
! Port Impedance         50               0                50               0                
65                             0.0371274649225021 3.36636407869795 0.800891675851575 -2.48521222924428 0.800891675851575 -2.48521222924427 0.0388321439890822 3.35736173561051 
! Gamma         95.7099957183965 3158.61117126578 96.4290018436154 3140.91443863893 
! Port Impedance         50               0                50               0                
66                             0.0418838749745202 23.3545759604617 0.798505473513771 -8.13780830735786 0.798505473513771 -8.13780830735786 0.0433055949553112 22.4646864367397 
! Gamma         97.0304414104958 3207.29382297665 97.7511833838934 3189.31536464532 
! Port Impedance         50               0                50               0                
67                             0.0522698919558597 35.4546728747232 0.795875887708114 -13.7883340703281 0.795875887708114 -13.7883340703281 0.0533287425032348 34.4128960695703 
! Gamma         98.3506166716814 3255.98844125029 99.0730133880645 3237.72832242972 
! Port Impedance         50               0                50               0                
68                             0.0652353210952425 41.014727867124  0.793019822999686 -19.4333921443815 0.793019822999686 -19.4333921443815 0.0660099678239091 40.114631833751  
! Gamma         99.6705904919052 3304.69526416    100.394564241509 3286.15355664958 
! Port Impedance         50               0                50               0                
69                             0.079041512096187 42.7170823160009 0.789962969150711 -25.0698921563714 0.789962969150713 -25.0698921563714 0.0796135857504432 41.9963267431013 
! Gamma         100.990429031149 3353.41453041375 101.715905341805 3334.59131271905 
! Port Impedance         50               0                50               0                
70                             0.0928110714089884 42.2207753788266 0.786738447413003 -30.6951684904465 0.786738447413003 -30.6951684904465 0.0932365661435853 41.6546114491804 
! Gamma         102.310195835232 3402.14647955706 103.037103324739 3383.04183699844 
! Port Impedance         50               0                50               0                
71                             0.106059075283998 40.4200759364527 0.783385173323183 -36.3070761486066 0.783385173323183 -36.3070761486066 0.106374104886367 39.9774472169346 
! Gamma         103.629952064463 3450.89135216218 104.358222322293 3431.50537703486 
! Port Impedance         50               0                50               0                
72                             0.118482738409543 37.8072160387701 0.779946042581067 -41.9040611964717 0.779946042581065 -41.9040611964717 0.118710754763504 37.4620862616506 
! Gamma         104.949756651029 3499.64939000486 105.679324149143 3479.98218172533 
! Port Impedance         50               0                50               0                
73                             0.129874121919711 34.6678466753243 0.776466048007497 -47.4852040177648 0.776466048007497 -47.4852040177648 0.130030615228335 34.4000088628668 
! Gamma         106.26966656563  3548.42083625703 107.000468521445 3528.4725015384  
! Port Impedance         50               0                50               0                
74                             0.140081830258138 31.1770829977961 0.772990427176057 -53.0502352727792 0.772990427176056 -53.0502352727792 0.140177126888845 30.9709855989129 
! Gamma         107.589736919202 3597.20593558935 108.321713216774 3576.97658861845 
! Port Impedance         50               0                50               0                
75                             0.148992676791298 27.4478070641805 0.769562924622314 -58.5995258894785 0.769562924622314 -58.5995258894785 0.149033604560221 27.2913062920356 
! Gamma         108.910021232782 3646.00493442054 109.643114324189 3625.49469702036 
! Port Impedance         50               0                50               0                
76                             0.156522014520543 23.5561808183601 0.766224232654084 -64.1340535160322 0.766224232654084 -64.1340535160321 0.156512915313643 23.4395603274094 
! Gamma         110.230571458362 3694.81808096692 110.964726352575 3674.02708282365 
! Port Impedance         50               0                50               0                
77                             0.162608102694947 19.5558704724294 0.763010653863576 -69.6553486030051 0.763010653863575 -69.6553486030051 0.162551462742182 19.4711211815899 
! Gamma         111.551438278379 3743.64562544796 112.286602407254 3722.5740042803  
! Port Impedance         50               0                50               0                
78                             0.167208512767868 15.4864265089928 0.759953009083194 -75.1654236588792 0.759953009083194 -75.1654236588791 0.167105361391522 15.4267207209986 
! Gamma         112.87267117238  3792.48782019404 113.608794349252 3771.13572199828 
! Port Impedance         50               0                50               0                
79                             0.17029767942947 11.3785165659801 0.75707579857571 -80.6666893204096 0.75707579857571 -80.6666893204096 0.17014784149776 11.33781603268   
! Gamma         114.194318523787 3841.34491978531 114.931352923118 3819.71249901342 
! Port Impedance         50               0                50               0                
80                             0.17186518879412 7.25741895223045 0.754396612650333 -86.1618607542584 0.754396612650332 -86.1618607542584 0.171667439580528 7.23017165187568 
! Gamma         115.516427822642 3890.21718118049 116.254327911137 3868.30460103633 
! Port Impedance         50               0                50               0                
81                             0.171914618795771 3.14555706387841 0.751925780798232 -91.6538576659033 0.751925780798232 -91.6538576659033 0.171666768775621 3.12645031422278 
! Gamma         116.839045759566 3939.10486388584 117.577768250251 3916.91229646184 
! Port Impedance         50               0                50               0                
82                             0.170462852082963 -0.935456361141112 0.749666245335166 -97.1457009003067 0.749666245335166 -97.1457009003067 0.170161776053195 -0.95170976139689 
! Gamma         118.162218294805 3988.00823000649 118.901722147508 3965.53585663512 
! Port Impedance         50               0                50               0                
83                             0.167539834138422 -4.96294550455326 0.747613645503119 -102.640408362806 0.747613645503118 -102.640408362806 0.167181449944821 -4.98180530335065 
! Gamma         119.485990811218 4036.92754446863 120.226237205364 4014.17555590506 
! Port Impedance         50               0                50               0                