! Touchstone file exported from HFSS 2024.2.0
!        File:           C:/Users/vaintrug/Documents/Ansoft_Workspace/Comparaison_Calculs_HFSS/1_VarPort.aedt
!        Generated:      03:22:18 PM Jan 21, 2025
!        Design:         1_NoDeembed_FacePortFree
!        Project:        1_VarPort
!        Setup:          Setup1
!        Solution:       Sweep
!
! Variables:
!        $Lenght = 2000um
!        $PortSize = 170um
!        Gap = 30um
!        Th = 2um
!        X_centralStrip = 20um
!        X_masse = 200um
!        Y_Sub = 2mm
!        Z_Box = 400um
!        Z_Sub = 200um
!
# GHz S MA R 50.000000
! Terminal data exported
! Port[1] = 1
! Port[2] = 2
1                              0.027469503810024 61.026928498111  0.985402733025533 -5.899787294621  0.985402733025533 -5.899787294621  0.0274709791145004 61.0144421190067 
! Gamma         5.72898137110062 49.7449296664451 5.90774623023829 49.9941456790263 
! Port Impedance         50               0                50               0                
2                              0.0488757449923981 66.6735147842865 0.981875855177693 -11.6641573897027 0.981875855177692 -11.6641573897027 0.048876434963161 66.6482959466952 
! Gamma         7.47165863698207 98.1942975249736 7.64754691862121 98.6530222173016 
! Port Impedance         50               0                50               0                
3                              0.070525552523384 65.6627073193115 0.978298218994352 -17.4297198298733 0.978298218994353 -17.4297198298733 0.0705248924897114 65.6249575466773 
! Gamma         8.87339897664126 146.675379335475 9.05098451417069 147.36251091297  
! Port Impedance         50               0                50               0                
4                              0.0916509384214093 62.4480875106431 0.974313592710553 -23.1861810498834 0.974313592710553 -23.1861810498834 0.0916479975777458 62.3972217498954 
! Gamma         10.1931916844433 195.218851714228 10.3757192055762 196.137906706068 
! Port Impedance         50               0                50               0                
5                              0.111815096485448 58.2802441250739 0.969905528648216 -28.9244651900818 0.969905528648218 -28.9244651900818 0.11180870562006 58.2156865812006 
! Gamma         11.5033368809957 243.791832371634 11.6928703826564 244.9437755309   
! Port Impedance         50               0                50               0                
6                              0.130722422751016 53.6372239007187 0.965138310783561 -34.6383424776341 0.96513831078356 -34.6383424776341 0.130711326592078 53.5583294780518 
! Gamma         12.8255598328536 292.373023959668 13.0235271268559 293.757958108181 
! Port Impedance         50               0                50               0                
7                              0.148150294757242 48.7393723226527 0.960104988295102 -40.3236484290157 0.960104988295102 -40.3236484290157 0.148133199402155 48.6453691889708 
! Gamma         14.1665760362514 340.949966624448 14.3739930316729 342.567642336344 
! Port Impedance         50               0                50               0                
8                              0.163925424811327 43.7019186590376 0.954909899770789 -45.9779361001001 0.954909899770789 -45.9779361001001 0.163901005042151 43.5918752197828 
! Gamma         15.5277034405085 389.515040920912 15.7453053471246 391.365058612105 
! Port Impedance         50               0                50               0                
9                              0.177913607958798 38.5905814771085 0.949659486076811 -51.6002929369066 0.949659486076811 -51.6002929369066 0.177880499468828 38.4633798371406 
! Gamma         16.9080002324446 438.063406388415 17.1363242090385 440.145305086047 
! Port Impedance         50               0                50               0                
10                             0.190013671306432 33.4450978210806 0.944456117971145 -57.1911910585701 0.944456117971146 -57.1911910585701 0.189970455877093 33.2994056171876 
! Gamma         18.30549637902   486.591974549371 18.5449345856925 488.905273311176 
! Port Impedance         50               0                50               0                
11                             0.200152816077773 28.2904092807015 0.939393610301506 -62.7523289411824 0.939393610301506 -62.7523289411824 0.20009800205123 28.1246459581138 
! Gamma         19.7177622636885 535.098859359254 19.9685968458609 537.643078097785 
! Port Impedance         50               0                50               0                
12                             0.208282533803713 23.142528459273  0.93455399372517 -68.2864560905771 0.93455399372517 -68.2864560905771 0.208214532153083 22.9548231284287 
! Gamma         21.1422082224961 583.583052603487 21.4046352422878 586.357723143289 
! Port Impedance         50               0                50               0                
13                             0.214374939049077 18.0119045045096 0.930005326637807 -73.7971841150783 0.930005326637806 -73.7971841150783 0.214292034400719 17.8000423888666 
! Gamma         22.576257492102  632.044210621683 22.8504042762367 635.048883037383 
! Port Impedance         50               0                50               0                
14                             0.21841956965833 12.9055330924052 0.925800373888298 -79.2887908675367 0.925800373888298 -79.2887908675367 0.218319884940055 12.6668868820436 
! Gamma         24.0174510556633 680.482500896194 24.3033892937838 683.716747165721 
! Port Impedance         50               0                50               0                
15                             0.220420747997365 7.82840974439546 0.921975989863313 -84.7660241101528 0.921975989863313 -84.7660241101528 0.220302200572957 7.55985060390454 
! Gamma         25.4635112462543 728.89848352661  25.7612673512833 732.361899663642 
! Port Impedance         50               0                50               0                
16                             0.220395577731105 2.78464084705108 0.918553057720707 -90.2339097562193 0.918553057720706 -90.2339097562193 0.22025582381816 2.48242186547372 
! Gamma         26.9123781289139 777.29301581832  27.2219416813261 780.985222878924 
! Port Impedance         50               0                50               0                
17                             0.218372614148546 -2.22160167919307 0.91553686001256 -95.697568133265 0.91553686001256 -95.697568133265 0.218208976685943 -2.56200017323022 
! Gamma         28.3622269722753 825.667173675313 28.6835577599074 829.587817955601 
! Port Impedance         50               0                50               0                
18                             0.214391208672724 -7.18515002134882 0.912917786184364 -101.162040431528 0.912917786184365 -101.162040431528 0.214200581307792 -7.56922884928408 
! Gamma         29.8114722571108 874.022186376761 30.1445061808401 878.170939130999 
! Port Impedance         50               0                50               0                
19                             0.208501497834894 -12.0988128677678 0.910672314527202 -106.632126681783 0.910672314527203 -106.632126681783 0.208280213751436 -12.5333395164434 
! Gamma         31.2587621979843 922.359382723641 31.603416289678  926.735939386344 
! Port Impedance         50               0                50               0                
20                             0.200764986184445 -16.9521039052199 0.908764235786931 -112.112236328412 0.90876423578693 -112.112236328412 0.20050863397522 -17.4455114302849 
! Gamma         32.7029667538637 970.680146997744 33.0591434122684 975.284226160777 
! Port Impedance         50               0                50               0                
21                             0.191255664974205 -21.729510246831 0.907146109203001 -117.606252633113 0.907146109203001 -117.606252633113 0.190958822775689 -22.2924669450175 
! Gamma         34.1431613689173 1018.98588356678 34.5107519686239 1023.81722570138 
! Port Impedance         50               0                50               0                
22                             0.180061621900686 -26.4079396057733 0.90576095673624 -123.117412638168 0.90576095673624 -123.117412638168 0.179717461654548 -27.0541831171392 
! Gamma         35.5786082898478 1067.27798896367 35.9574962131602 1072.33635503294 
! Port Impedance         50               0                50               0                
23                             0.167287150234516 -30.9526918678799 0.904544206065444 -128.648205093611 0.904544206065444 -128.648205093611 0.166886828460947 -31.7002853467816 
! Gamma         37.0087367632067 1115.55783043867 37.3987999474421 1120.84300042136 
! Port Impedance         50               0                50               0                
24                             0.153055502730081 -35.3106892322717 0.903425886893124 -134.200289446857 0.903425886893124 -134.200289446857 0.152587185873517 -36.183973887418 
! Gamma         38.4331231089255 1163.82673001501 38.8342361676464 1169.33850140915 
! Port Impedance         50               0                50               0                
25                             0.137512766843646 -39.3983519682449 0.902333068441146 -139.774439502642 0.902333068441146 -139.774439502642 0.136960000151832 -40.4310889901117 
! Gamma         39.8514713942872 1212.08595319597 40.2635073898469 1217.82413950149 
! Port Impedance         50               0                50               0                
26                             0.120834155046436 -43.0783221838789 0.90119250034295 -145.370515541252 0.90119250034295 -145.370515541252 0.120172982044617 -44.3189314847333 
! Gamma         41.2635951968342 1260.33670142814 41.6864270819381 1266.3011306642  
! Port Impedance         50               0                50               0                
27                             0.103236171849098 -46.1110391114678 0.89993338733758 -150.987468369546 0.899933387337579 -150.987468369546 0.102429707526406 -47.6315860147382 
! Gamma         42.669400761023  1308.58010763125 43.1029025504942 1314.77062092613 
! Port Impedance         50               0                50               0                
28                             0.0850045244388074 -48.043844617184 0.89849019466644 -156.623377886744 0.898490194666441 -156.623377886744 0.0839919181081951 -49.9553013690579 
! Gamma         44.0688716906689 1356.81723420659 44.5129194125972 1363.23368443513 
! Port Impedance         50               0                50               0                
29                             0.0665694173887219 -47.9264224625608 0.89680535135047 -162.275527247672 0.896805351350471 -162.275527247672 0.0652415027532575 -50.3993232526649 
! Gamma         45.4620552808607 1405.04907293088 45.9165277107379 1411.69132340781 
! Port Impedance         50               0                50               0                
30                             0.0487467249202029 -43.4919554559479 0.894831698529309 -167.940511691018 0.89483169852931 -167.940511691018 0.0468906586715028 -46.7265427707495 
! Gamma         46.8490504212363 1453.27654625288 47.3138296651089 1460.14446951719 
! Port Impedance         50               0                50               0                
31                             0.0336377785627241 -28.9078949690278 0.892534525044621 -173.614378741559 0.892534525044619 -173.614378741559 0.0308703922206395 -32.4305229521293 
! Gamma         48.229997064875  1501.50050967796 48.7049689820138 1508.5939863682  
! Port Impedance         50               0                50               0                
32                             0.027116516924651 3.72340944137425 0.889893045876254 -179.292794069415 0.889893045876254 -179.292794069415 0.023605878415734 4.34570126993546 
! Gamma         49.6050671087923 1549.72175484948 50.0901216290271 1557.04067264564 
! Port Impedance         50               0                50               0                
33                             0.0345037480590159 35.0088736509812 0.886901211364507 175.028774884    0.886901211364507 175.028774884    0.0318482009870946 39.2835623386849 
! Gamma         50.9744566074453 1597.94101314795 51.4694879331583 1605.48526580424 
! Port Impedance         50               0                50               0                
34                             0.0496475123443371 48.4049360967914 0.883567783484535 169.354867007051 0.883567783484535 169.354867007051 0.0478735597139152 52.2531576427697 
! Gamma         52.3383791648159 1646.15895957965 52.8432858997705 1653.92844602544 
! Port Impedance         50               0                50               0                
35                             0.0670306342791679 52.3775078467429 0.879915673667214 163.689837625713 0.879915673667214 163.689837625713 0.0657612034181977 55.4740537520261 
! Gamma         53.6970603943582 1694.37621676739 54.2117456003586 1702.37084028084 
! Port Impedance         50               0                50               0                
36                             0.0847383297025961 52.3365364336058 0.875980596661942 158.037680739894 0.875980596661942 158.037680739894 0.0837707176834018 54.8879807088759 
! Gamma         55.0507333193769 1742.59335896299 55.5751045111654 1750.81302644317 
! Port Impedance         50               0                50               0                
37                             0.102022260716059 50.3797619817148 0.871809148160216 152.401872418432 0.871809148160216 152.401872418432 0.101251925042684 52.5517805638563 
! Gamma         56.3996345683773 1790.81091602405 56.9336036686198 1799.25553729669 
! Port Impedance         50               0                50               0                
38                             0.118491335007195 47.3968368045179 0.867456453157781 146.785242544175 0.867456453157781 146.785242544175 0.117859495505856 49.2968202695676 
! Gamma         57.7440013017423 1839.02937719746 58.2874845621616 1847.69886440705 
! Port Impedance         50               0                50               0                
39                             0.133893257504901 43.8164080717857 0.862983552935731 141.189879739519 0.862983552935731 141.189879739519 0.133364040990057 45.5143549422837 
! Gamma         59.0840687348039 1887.24919476465 59.6369866205578 1896.14346182224 
! Port Impedance         50               0                50               0                
40                             0.148045082799908 39.867841554818  0.858454700095624 135.617071797077 0.858454700095625 135.617071797077 0.147595128231619 41.4110752586194 
! Gamma         60.4200681674918 1935.47078747421 60.9823452298547 1944.58974954375 
! Port Impedance         50               0                50               0                
41                             0.160806898921112 35.6842728719926 0.853934715584631 130.067281541081 0.85393471558463 130.067281541081 0.160420230981467 37.1060670926418 
! Gamma         61.7522254762231 1983.69454372895 62.3237901990399 1993.03811679199 
! Port Impedance         50               0                50               0                
42                             0.172070032953795 31.3480247122982 0.84948653367536 124.540156032674 0.849486533675359 124.540156032674 0.171735342203955 32.6726461320266 
! Gamma         63.0807599497657 2031.92082457296 63.6615445934494 2041.48892501686 
! Port Impedance         50               0                50               0                
43                             0.181750760599942 26.9126204207017 0.845169026233925 119.034565550548 0.845169026233926 119.034565550548 0.18145987346879 28.1583720648992 
! Gamma         64.4058834474609 2080.14996643319 64.9958238807015 2089.94251068787 
! Port Impedance         50               0                50               0                
44                             0.189786326813343 22.4143471609055 0.84103516187629 113.548667862665 0.84103516187629 113.548667862665 0.189533306909838 23.5954784237948 
! Gamma         65.7277998060198 2128.38228363011 66.3268353353474 2138.39918785327 
! Port Impedance         50               0                50               0                
45                             0.19613206698575 17.8787765391799 0.837130523478344 108.079992937745 0.837130523478344 108.079992937745 0.195912673167456 19.0067315679484 
! Gamma         67.0467044609047 2176.61807069311 67.6547776566863 2186.85925047375 
! Port Impedance         50               0                50               0                
46                             0.200759164141456 13.3246977824145 0.83349218194216 102.625543312983 0.833492181942161 102.625543312983 0.200570522462023 14.4089663634277 
! Gamma         68.3627842300255 2224.85760444973 68.9798407566093 2235.32297455299 
! Port Impedance         50               0                50               0                
47                             0.203652875123557 8.76666244585795 0.830147906667886 97.1819057062997 0.830147906667887 97.1819057062997 0.203493287087253 9.81538709864792 
! Gamma         69.6762172475921 2273.10114593476 70.3022056920165 2283.79062007792 
! Port Impedance         50               0                50               0                
48                             0.204811178009787 4.2167679645874  0.827115683841077 91.7453699964991 0.827115683841077 91.7453699964991 0.20468002205872 5.23720085059295 
! Gamma         70.9871730015915 2321.34894209953 71.6220447058603 2332.26243274899 
! Port Impedance         50               0                50               0                
49                             0.204243836716279 -0.313965461669598 0.824403511411137 86.3120522700169 0.824403511411138 86.3120522700169 0.204141539422761 0.684904488551846 
! Gamma         72.2958124566496 2369.60122738558 72.9395213581702 2380.73864557185 
! Port Impedance         50               0                50               0                
50                             0.201971889701726 -4.81440177403202 0.822009442903388 80.8780191330389 0.822009442903387 80.8780191330389 0.201899955319695 -3.83057012266914 
! Gamma         73.6022882521626 2417.85822511256 74.2547907255097 2429.21948027574 
! Port Impedance         50               0                50               0                
51                             0.198027567813851 -9.27211432847354 0.819921858989896 75.4394108569501 0.819921858989896 75.4394108569501 0.197988663599184 -8.29669667518642 
! Gamma         74.9067449455695 2466.12014873607 75.5679996521355 2477.70514858933 
! Port Impedance         50               0                50               0                
52                             0.192454642088125 -13.6720748134689 0.818119954013137 69.992561112046  0.818119954013138 69.992561112046  0.192452744600012 -12.6980293789364 
! Gamma         76.209319297986  2514.38720298618 76.8792870398343 2526.19585338523 
! Port Impedance         50               0                50               0                
53                             0.185309203151466 -17.9950213338659 0.816574432524256 64.5341110501107 0.816574432524256 64.5341110501107 0.185349819545025 -17.0145264946157 
! Gamma         77.5101405831477 2562.65958486517 78.1887841647735 2574.6917897067  
! Port Impedance         50               0                50               0                
54                             0.176660888931078 -22.2152409744162 0.81524841655919 59.0611153436221 0.81524841655919 59.0611153436221 0.176751379283189 -21.2192519134993 
! Gamma         78.8093309177983 2610.93748456867 79.4966150156838 2623.19314568068 
! Port Impedance         50               0                50               0                
55                             0.166594621104385 -26.2973403855658 0.814098566435698 53.5711375243647 0.814098566435699 53.5711375243646 0.166744666419352 -25.2750177573169 
! Gamma         80.1070056003974 2659.22108627428 80.8028966343308 2671.7001033502  
! Port Impedance         50               0                50               0                
56                             0.155213012394527 -30.1912650318221 0.813076415206425 48.0623316645733 0.813076415206426 48.0623316645733 0.155435303675208 -29.1292139810929 
! Gamma         81.4032734542669 2707.51056887282 82.1077394719222 2720.21283938458 
! Port Impedance         50               0                50               0                
57                             0.142639828369393 -33.8242134818633 0.812129908971448 42.5335071967201 0.812129908971446 42.5335071967201 0.142951105168819 -32.7054579841944 
! Gamma         82.6982371755337 2755.80610660574 83.4112477332113 2768.73152574433 
! Port Impedance         50               0                50               0                
58                             0.129025369366008 -37.0868451528662 0.811205132139555 36.9841735844393 0.811205132139554 36.9841735844393 0.129448029606542 -35.8894758064677 
! Gamma         83.9919936652666 2804.10786963714 84.7135197289174 2817.25633025074 
! Port Impedance         50               0                50               0                
59                             0.114555719852436 -39.8085408682807 0.810248179344157 31.4145617147718 0.810248179344157 31.4145617147718 0.115120386186853 -38.5041138950572 
! Gamma         85.2846343705342 2852.41602455398 86.0146482087133 2865.78741710292 
! Port Impedance         50               0                50               0                
60                             0.0994703680803184 -41.710694751713 0.809207115807876 25.8256193943375 0.809207115807875 25.8256193943375 0.100220060181357 -40.2631096675119 
! Gamma         86.576245604584  2900.73073481577 87.3147206935549 2914.32494733327 
! Port Impedance         50               0                50               0                
61                             0.084099103178984 -42.3142661326728 0.808033948182152 20.2189792094108 0.808033948182152 20.2189792094108 0.0850959385190534 -40.6825027287259 
! Gamma         87.8669088576105 2949.05216115822 88.6138197962477 2962.86907920286 
! Port Impedance         50               0                50               0                
62                             0.0689458763535487 -40.7526476848059 0.80668651139304 14.5968982751116 0.80668651139304 14.5968982751116 0.0702804805891069 -38.9112228038741 
! Gamma         89.1567011040596 2997.38046193717 89.9120235232386 3011.41996856504 
! Port Impedance         50               0                50               0                
63                             0.0548893038845789 -35.4249531932501 0.805130167163901 8.9621709719546  0.805130167163902 8.96217097195458 0.0566848530122354 -33.4540003115549 
! Gamma         90.44569508365   3045.71579344342 91.2094055714516 3059.97776918075 
! Port Impedance         50               0                50               0                
64                             0.0436255809520859 -23.7305831153934 0.803339209476453 3.31801751233309 0.803339209476453 3.31801751233308 0.0459840185815106 -22.1047378552153 
! Gamma         91.7339595825679 3094.05831017055 92.5060356064091 3108.54263298966 
! Port Impedance         50               0                50               0                
65                             0.0380994942656407 -4.19315202024616 0.801297882943574 -2.33204707411126 0.801297882943575 -2.33204707411126 0.0408589126547966 -4.02836113677476 
! Gamma         93.0215596898916 3142.40816506598 93.8019795294028 3157.11471035582 
! Port Impedance         50               0                50               0                
66                             0.0407201410378305 17.0286087109892 0.799000941937328 -7.98435742835011 0.799000941937328 -7.98435742835011 0.043325941265739 15.3599857980925 
! Gamma         94.3085570500022 3190.76550972967 95.0972997276709 3205.69415029095 
! Port Impedance         50               0                50               0                
67                             0.0499641566799982 31.3762016960185 0.796453709432279 -13.6352486051809 0.796453709432278 -13.6352486051809 0.0520596433046039 28.9141146555853 
! Gamma         95.5950100931714 3239.13049461685 96.3920553145102 3254.28110063124 
! Port Impedance         50               0                50               0                
68                             0.0625696667819807 38.5057776388399 0.79367163131843 -19.2812053254159 0.79367163131843 -19.2812053254159 0.0641584452527885 35.9686218704758 
! Gamma         96.880974256577  3287.50326918555 97.6863023528217 3302.87570820988 
! Port Impedance         50               0                50               0                
69                             0.0764206295106175 41.1427711722246 0.790679359706732 -24.9190021070547 0.790679359706732 -24.9190021070547 0.0775949595804229 38.7240678785058 
! Gamma         98.1665021971128 3335.8839820435  98.980094068357  3351.47811900183 
! Port Impedance         50               0                50               0                
70                             0.0904427166754165 41.2179864403365 0.787509432606754 -30.5458274033011 0.787509432606754 -30.5458274033011 0.0912773087694561 38.9257742803297 
! Gamma         99.4516439789053 3384.27278108658 100.273481046253 3400.08847824658 
! Port Impedance         50               0                50               0                
71                             0.104060441094696 39.7916796720218 0.784200643134566 -36.1593861605496 0.784200643134566 -36.1593861605496 0.104602804110769 37.5905837015674 
! Gamma         100.736447264582 3432.66981358228 101.566511419177 3448.70693055749 
! Port Impedance         50               0                50               0                
72                             0.116926317826087 37.4431601986785 0.780796206436289 -41.7579768570029 0.780796206436289 -41.7579768570028 0.117203856722459 35.2930839982872 
! Gamma         102.020957480812 3481.07522628816 102.85923104194  3497.33362002402 
! Port Impedance         50               0                50               0                
73                             0.128807652871328 34.5044242367508 0.777341835989364 -47.3405408765437 0.777341835989364 -47.3405408765437 0.128834204609472 32.3690658279363 
! Gamma         103.305217983204 3529.48916551846 104.151683654675 3545.96869028831 
! Port Impedance         50               0                50               0                
74                             0.139537649950584 31.1765482003812 0.773883833894839 -52.9066838232876 0.773883833894839 -52.9066838232876 0.139317743988131 29.0241281761758 
! Gamma         104.589270204017 3577.91177722212 105.443911035605 3594.612284619   
! Port Impedance         50               0                50               0                
75                             0.148992531629172 27.5878475017993 0.770467284623899 -58.4566699039713 0.770467284623899 -58.4566699039713 0.14852397058051 25.3900625934108 
! Gamma         105.873153792033 3626.34320704114 106.735953143289 3643.26454597214 
! Port Impedance         50               0                50               0                
76                             0.157079786354056 23.8242428659776 0.767134421619821 -63.9913917035956 0.767134421619822 -63.9913917035956 0.156355161026539 21.5549931968497 
! Gamma         107.156906745675 3674.78360036367 108.027848250192 3691.9256170468  
! Port Impedance         50               0                50               0                
77                             0.163731515663491 19.9459818146357 0.763923214499918 -69.5123184950363 0.763923214499918 -69.5123184950363 0.162739047392328 17.5802186988166 
! Gamma         108.440565531312 3723.2331023718  109.319633066005 3740.59564032652 
! Port Impedance         50               0                50               0                
78                             0.168900312696762 15.9973713097667 0.760866204172805 -75.0214266656033 0.760866204172805 -75.0214266656033 0.167624249466258 13.5100933759799 
! Gamma         109.724165197853 3771.6918580742  110.611342852412 3789.27475812417 
! Port Impedance         50               0                50               0                
79                             0.172556531303481 12.0127850157028 0.757989596083773 -80.5211159798158 0.757989596083773 -80.5211159798157 0.170977220676177 9.37813307563477 
! Gamma         111.007739481941 3820.160012344   111.903011531288 3837.96311260549 
! Port Impedance         50               0                50               0                
80                             0.174686428986215 8.02062802770999 0.755312609126942 -86.0141152917353 0.755312609126943 -86.0141152917353 0.172780126627508 5.21101629034639 
! Gamma         112.291320905897 3868.63770994501 113.194671782331 3886.6608458265  
! Port Impedance         50               0                50               0                
81                             0.175290952022645 4.04617881489663 0.752847069836233 -91.5033810796152 0.752847069836233 -91.5033810796152 0.173029381107758 1.03140167924957 
! Gamma         113.574940866495 3917.12509555321 114.486355137018 3935.36809975277 
! Port Impedance         50               0                50               0                
82                             0.174385066937855 0.113850482172096 0.750597237827312 -96.9919918807925 0.750597237827313 -96.9919918807925 0.171734709022879 -3.13989341071791 
! Gamma         114.85862972133  3965.62231378131 115.778092063852 3984.0850162792  
! Port Impedance         50               0                50               0                
83                             0.171997611907552 -3.75077073224578 0.74855984820895 -102.483041423857 0.74855984820895 -102.483041423857 0.168918675814924 -7.28199499862836 
! Gamma         116.142416864764 4014.12950918682 117.069912046506 4032.81173724501 
! Port Impedance         50               0                50               0                