! Touchstone file exported from HFSS 2024.2.0
!        File:           C:/Users/vaintrug/Documents/Ansoft_Workspace/Comparaison_Calculs_HFSS/1_VarPort.aedt
!        Generated:      03:22:18 PM Jan 21, 2025
!        Design:         1_NoDeembed_FacePortFree
!        Project:        1_VarPort
!        Setup:          Setup1
!        Solution:       Sweep
!
! Variables:
!        $Lenght = 2000um
!        $PortSize = 220um
!        Gap = 30um
!        Th = 2um
!        X_centralStrip = 20um
!        X_masse = 200um
!        Y_Sub = 2mm
!        Z_Box = 400um
!        Z_Sub = 200um
!
# GHz S MA R 50.000000
! Terminal data exported
! Port[1] = 1
! Port[2] = 2
1                              0.0278154083389789 61.2737251894587 0.985389274013859 -5.90348487977215 0.985389274013858 -5.90348487977215 0.0278112004062363 61.2864367842326 
! Gamma         5.95191194016006 50.1240389559293 5.8987329240778  50.0420673850862 
! Port Impedance         50               0                50               0                
2                              0.0495827334274936 66.7737856160933 0.981843869897029 -11.6705814012566 0.981843869897028 -11.6705814012566 0.0495684537265296 66.8157353339846 
! Gamma         7.72598390635232 98.8466293639419 7.61737470579656 98.7429717936659 
! Port Impedance         50               0                50               0                
3                              0.071575807435546 65.678607253363  0.9782343720048  -17.4387420620771 0.978234372004799 -17.4387420620771 0.0715543176850648 65.7510213876328 
! Gamma         9.14094255164621 147.626311785818 9.00406358297765 147.520659581761 
! Port Impedance         50               0                50               0                
4                              0.0930219198112015 62.4069006606543 0.974204908861006 -23.1973290772647 0.974204908861006 -23.1973290772647 0.0929961562325732 62.5090325673284 
! Gamma         10.4744674384446 196.476165147759 10.3221451849185 196.366898778557 
! Port Impedance         50               0                50               0                
5                              0.113480093628484 58.1951777226637 0.969741625321125 -28.93706268271  0.969741625321125 -28.93706268271  0.113452573750703 58.3270236015377 
! Gamma         11.8000864797775 245.357966168474 11.6368501303077 245.242251007919 
! Port Impedance         50               0                50               0                
6                              0.132651103325285 53.5154755605191 0.964912134306336 -34.6515835219696 0.964912134306336 -34.6515835219696 0.132624153018584 53.6776189127976 
! Gamma         13.1393935325366 294.248633723653 12.9667050050981 294.124651895124 
! Port Impedance         50               0                50               0                
7                              0.150309504606818 48.5851418858827 0.959813012197025 -40.3366567048777 0.959813012197024 -40.3366567048776 0.150285394246401 48.7786027373753 
! Gamma         14.4988565670714 343.134957292049 14.3170059264511 343.001757051122 
! Port Impedance         50               0                50               0                
8                              0.166279997396734 43.5176690585537 0.954552065598272 -45.9898159625317 0.954552065598272 -45.9898159625317 0.166261031449228 43.7438407053018 
! Gamma         15.8795572788353 392.008956842326 15.6883681325649 391.866159727303 
! Port Impedance         50               0                50               0                
9                              0.180427103090472 38.377614461649  0.949238966554737 -51.6101749259947 0.949238966554736 -51.6101749259947 0.180415691746486 38.6382495208069 
! Gamma         17.2803431744725 440.865611692284 17.0794595670321 440.713208501112 
! Port Impedance         50               0                50               0                
10                             0.192648997199886 33.2038260870753 0.943978946616845 -57.1982717234013 0.943978946616846 -57.1982717234012 0.19264772046764 33.5010515392252 
! Gamma         18.6990579922246 489.701749535829 18.4880716927546 489.539971614335 
! Port Impedance         50               0                50               0                
11                             0.202872711934936 28.0204794853982 0.938868218498341 -62.755904235604 0.93886821849834 -62.755904235604 0.202884380151011 28.3568327499795 
! Gamma         20.1331075770423 538.515458378795 19.9116184582792 538.344695223093 
! Port Impedance         50               0                50               0                
12                             0.211049908834786 22.8428632317139 0.933990693805802 -68.2859478594606 0.933990693805802 -68.2859478594606 0.211077621718801 23.2213475331854 
! Gamma         21.5797572967461 587.305741573995 21.3474029374337 587.126486098451 
! Port Impedance         50               0                50               0                
13                             0.217153079581559 17.6806947014052 0.929415773409159 -73.7921595223572 0.92941577340916 -73.7921595223572 0.217200285857189 18.1048554230429 
! Gamma         23.0363036164744 636.072292804456 22.7927733052094 635.8851032814   
! Port Impedance         50               0                50               0                
14                             0.221172235801149 12.5401937984637 0.925197029124308 -79.2789749570298 0.925197029124309 -79.2789749570298 0.22124279607911 13.0142202307183 
! Gamma         24.5001778923075 684.815334737733 24.2452181835438 684.620807487262 
! Port Impedance         50               0                50               0                
15                             0.223112186553975 7.42550363026292 0.921371606323589 -84.7513058834978 0.921371606323589 -84.7513058834978 0.223210443346818 7.95436335264056 
! Gamma         25.9690089610497 733.535495080358 25.70242435582   733.334244336226 
! Port Impedance         50               0                50               0                
16                             0.222990479367171 2.33976603928317 0.917960192550505 -90.2143422421334 0.917960192550505 -90.2143422421334 0.223121339811894 2.9293827282033  
! Gamma         27.440658453389  782.233706914188 27.1623092229529 782.026349830047 
! Port Impedance         50               0                50               0                
17                             0.220836040564097 -2.71396790005963 0.914967422732468 -95.6733629327142 0.914967422732468 -95.6733629327142 0.221005079961307 -2.05647720320636 
! Gamma         28.9132370531531 830.911126867871 28.6230353687993 830.698272279168 
! Port Impedance         50               0                50               0                
18                             0.2166885108025  -7.73186687850324 0.912382623935618 -101.133557167631 0.912382623935617 -101.133557167631 0.21690210895764 -6.99787117919468 
! Gamma         30.3851072392597 879.569067378603 30.0830123641437 879.351307496451 
! Port Impedance         50               0                50               0                
19                             0.210598237969243 -12.7083751272624 0.91018083684957 -106.599857746061 0.91018083684957 -106.599857746061 0.210863766464097 -11.8872894917364 
! Gamma         31.8548764604393 928.208940902041 31.5408894986789 927.986845269858 
! Port Impedance         50               0                50               0                
20                             0.202626865206318 -17.6350616899722 0.908324082407884 -112.076787282733 0.908324082407884 -112.076787282733 0.20295295386318 -16.7137320158732 
! Gamma         33.3213837736891 976.832214477238 32.9955422979418 976.606325706665 
! Port Impedance         50               0                50               0                
21                             0.192848438133372 -22.4990680665381 0.906762866701507 -117.568318641776 0.906762866701507 -117.568318641776 0.193245366183799 -21.4608919951633 
! Gamma         34.7836823156023 1025.44037315655 34.4460551050384 1025.21120417537 
! Port Impedance         50               0                50               0                
22                             0.181350958815101 -27.2808275163982 0.905437932831602 -123.077751384137 0.905437932831602 -123.077751384137 0.181831246732625 -26.104466852476 
! Gamma         36.2410193413333 1074.03489143783 35.8917013912667 1073.80292377893 
! Port Impedance         50               0                50               0                
23                             0.168238348861831 -31.9504591332335 0.904282272997755 -128.607606781951 0.904282272997755 -128.607606781951 0.168817682847428 -30.6079003221606 
! Gamma         37.6928152940194 1122.61721129581 37.3319231515481 1122.38289436347 
! Port Impedance         50               0                50               0                
24                             0.15363288628238 -36.4616675099611 0.903223407142858 -134.159544694151 0.903223407142859 -134.159544694151 0.154331615661388 -34.915206630266 
! Gamma         39.1386428261104 1171.18872598115 38.7663103507152 1170.95247697372 
! Port Impedance         50               0                50               0                
25                             0.137678440029805 -40.740693095101 0.902185916203031 -139.734306158155 0.902185916203031 -139.734306158155 0.138524108749938 -38.9380857605694 
! Gamma         40.5782065593653 1219.7507685492  40.1945811073151 1219.51297296847 
! Port Impedance         50               0                50               0                
26                             0.120545486231666 -44.6647400921344 0.90109419012364 -145.331685737487 0.90109419012364 -145.331685737487 0.12157734058534 -42.5311257030959 
! Gamma         42.0113240283457 1268.30460437215 41.6165630662072 1268.06561689538 
! Port Impedance         50               0                50               0                
27                             0.102440693789457 -48.0159860754094 0.899875316454074 -150.950537313976 0.899875316454074 -150.950537313976 0.103718232461714 -45.4400966436915 
! Gamma         43.437908123753  1316.85142673962 43.0321762610656 1316.61157241306 
! Port Impedance         50               0                50               0                
28                             0.0836294154725021 -50.3722862060565 0.89846199936694 -156.588816051943 0.898461999366941 -156.588816051944 0.0852498706819502 -47.1833841437036 
! Gamma         44.8579511957813 1365.39235501375 44.44141763025   1365.15193063488 
! Port Impedance         50               0                50               0                
29                             0.0644995346391334 -50.8091312605203 0.896795367256378 -162.243657632684 0.896795367256378 -162.243657632684 0.0666365170126309 -46.7483121424433 
! Gamma         46.2715108576468 1413.92843469734 45.844347180227  1413.68771034611 
! Port Impedance         50               0                50               0                
30                             0.0457851687728564 -46.9394174601532 0.894827506142528 -167.911493690632 0.894827506142528 -167.911493690632 0.0487753196161288 -41.7296299626902 
! Gamma         47.6786974771059 1462.46063896003 47.2410758261256 1462.21985956732 
! Port Impedance         50               0                50               0                
31                             0.0295630350370343 -31.5207322302462 0.892523551578289 -173.588199854221 0.892523551578289 -173.588199854221 0.0339847315046874 -26.1413575412826 
! Gamma         49.079663274611  1510.98987121894 48.631754793982  1510.74925820049 
! Port Impedance         50               0                50               0                
32                             0.023023443778475 8.19625977007386 0.889863187168813 -179.269270214337 0.889863187168814 -179.269270214337 0.0283718899889808 6.55372522230106 
! Gamma         50.4745929210188 1559.51696850332 50.0165664940253 1559.27672134947 
! Port Impedance         50               0                50               0                
33                             0.0326293040250623 42.4414407673876 0.886841433546829 175.049990245801 0.886841433546829 175.049990245801 0.0364582472534122 36.0194238347645 
! Gamma         51.8636955081934 1608.04270523579 51.3957167362239 1607.80300308335 
! Port Impedance         50               0                50               0                
34                             0.0494100338256062 54.0945107467348 0.883468664265257 169.374265384156 0.883468664265257 169.374265384156 0.0518800248578381 48.591966732002  
! Gamma         53.2471977540464 1656.5677973534  52.7694281485774 1656.32880048908 
! Port Impedance         50               0                50               0                
35                             0.0677460258443022 56.6594882367055 0.879769847801263 163.708030681249 0.879769847801263 163.708030681249 0.069439026218938 52.3442819856763 
! Gamma         54.6253383146257 1705.092906504   54.137934664644  1704.85475781074 
! Port Impedance         50               0                50               0                
36                             0.0860725394398333 55.7245105950335 0.87578307875544 158.055369699108 0.87578307875544 158.055369699108 0.0872912863529004 52.2551847012869 
! Gamma         55.9983630582053 1753.61864428004 55.5014769640286 1753.38147058715 
! Port Impedance         50               0                50               0                
37                             0.103792776951131 53.1788526327326 0.871557517155612 152.419813603202 0.871557517155611 152.419813603202 0.104694251499386 50.3024658200351 
! Gamma         57.3665211823955 1802.14557633606 56.8602987267438 1801.90948969461 
! Port Impedance         50               0                50               0                
38                             0.120580085668656 49.7857441677568 0.867150894956507 146.804211094276 0.867150894956507 146.804211094276 0.121254029387882 47.3413916526721 
! Gamma         58.7300620711192 1850.67422638387 58.2146435916538 1850.43932524454 
! Port Impedance         50               0                50               0                
39                             0.136212805882603 45.9055554798247 0.862626768920005 141.210633551547 0.862626768920005 141.210633551547 0.136715519386523 43.7895464860118 
! Gamma         60.0892327660255 1899.20507996839 59.5647527283463 1898.97145029234 
! Port Impedance         50               0                50               0                
40                             0.150524335020133 41.7293206983448 0.858051698412995 135.640317513847 0.858051698412995 135.640317513847 0.150894071358361 39.8724709061261 
! Gamma         61.4442759736448 1947.73858804718 60.9108629286618 1947.50630429812 
! Port Impedance         50               0                50               0                
41                             0.163384509486259 37.3674007012349 0.85349250807692 130.093644096394 0.85349250807692 130.093644096394 0.163649108878389 35.7219919973233 
! Gamma         62.7954285309007 1996.27517030331 62.2532051255766 1996.04429639113 
! Port Impedance         50               0                50               0                
42                             0.174691136224146 32.8878423517208 0.849013764080917 124.570152883306 0.849013764080917 124.570152883306 0.174872117276414 31.4200795971376 
! Gamma         64.1429202356761 2044.81521826072 63.5920032834825 2044.58580837707 
! Port Impedance         50               0                50               0                
43                             0.184365246452887 28.3347907780601 0.844675555038566 119.06858632551  0.844675555038565 119.06858632551  0.184480149251398 27.0202984498365 
! Gamma         65.4869730046784 2093.35909811413 64.9274735927294 2093.13119750323 
! Port Impedance         50               0                50               0                
44                             0.192347871900685 23.7381193175958 0.84053163069893 113.5869598044   0.84053163069893 113.5869598044   0.192411681060074 22.5591625569153 
! Gamma         66.8278002832305 2141.9071533449  66.2598239131875 2141.68079901491 
! Port Impedance         50               0                50               0                
45                             0.198597552224005 19.1188614059816 0.836627917978337 108.122652215213 0.836627917978337 108.122652215213 0.198623610447838 18.0625837826315 
! Gamma         68.1656066761353 2190.45970712172 67.5892534309583 2190.23492846375 
! Port Impedance         50               0                50               0                
46                             0.203088300873523 14.492504706363  0.833001407862274 102.672512065698 0.833001407862273 102.672512065698 0.203088930202731 13.5497916755315 
! Gamma         69.5005877486626 2239.01706445717 68.9159524736543 2238.79388382456 
! Port Impedance         50               0                50               0                
47                             0.205807956065275 9.87114813055971 0.829679389469389 97.2329745349407 0.82967938946939 97.2329745349407 0.20579490897263 9.03589407785977 
! Gamma         70.8329299743659 2287.57951418816 70.2401024737133 2287.35794740832 
! Port Impedance         50               0                50               0                
48                             0.206756916762685 5.26504511321739 0.826678998995773 91.8001855380853 0.826678998995774 91.8001855380853 0.206741730510202 4.53369557307737 
! Gamma         72.1628107875225 2336.14733075548 71.5618760275519 2335.92738759222 
! Port Impedance         50               0                50               0                
49                             0.205947284198388 0.683831432181024 0.824007050100354 86.3701294550966 0.824007050100353 86.3701294550966 0.205941586536037 0.0551266862287688 
! Gamma         73.4903987308199 2384.72077581266 72.8814370492417 2384.50246038986 
! Port Impedance         50               0                50               0                
50                             0.203402428317513 -3.8623700423997 0.821660116702703 80.9387577147425 0.821660116702702 80.9387577147425 0.203418230155227 -4.38748958840113 
! Gamma         74.8158536689525 2433.30009967523 74.1989409826162 2433.08341083623 
! Port Impedance         50               0                50               0                
51                             0.199156989932445 -8.36181756627384 0.819624847036771 75.5021157873618 0.819624847036771 75.5021157873618 0.199206996344263 -8.78016005527797 
! Gamma         76.1393270547794 2481.88554263051 75.5145350705564 2481.67047426887 
! Port Impedance         50               0                50               0                
52                             0.193257321603397 -12.7998416423008 0.817878496936655 70.0564663175255 0.817878496936655 70.0564663175255 0.193355294728882 -13.1057629871154 
! Gamma         77.460962230924  2530.47733608377 76.8283586480927 2530.26387744756 
! Port Impedance         50               0                50               0                
53                             0.185762369959964 -17.157169138764 0.816389678704874 64.5984060991501 0.816389678704874 64.5984060991501 0.185923586367947 -17.3422003970521 
! Gamma         78.7808947632116 2579.07570363169 78.140543478262  2578.86383957802 
! Port Impedance         50               0                50               0                
54                             0.176745018162393 -21.4075968404648 0.8151193277336  59.1249744058119 0.8151193277336  59.1249744058119 0.176986881509797 -21.4598556134222 
! Gamma         80.0992527869667 2627.68086197482 79.4512140847933 2627.47057320088 
! Port Impedance         50               0                50               0                
55                             0.166293955953917 -25.5145459615055 0.814021890763428 53.6337498830153 0.814021890763428 53.6337498830153 0.166636858702337 -25.4178605213255 
! Gamma         81.4161573673297 2676.29302176586 80.7604881113433 2676.0842850185  
! Port Impedance         50               0                50               0                
56                             0.154516259273576 -29.4256706854545 0.813046736202659 48.1229328857186 0.81304673620266 48.1229328857186 0.154984845326077 -29.1583128020365 
! Gamma         82.7317228577692 2724.91238834615 82.068476672855  2724.7051766016  
! Port Impedance         50               0                50               0                
57                             0.141541113343053 -33.0639822028492 0.812139777798705 42.5914098726411 0.812139777798705 42.5914098726411 0.142166196754557 -32.5968765679759 
! Gamma         84.0460572640642 2773.53916241857 83.3752847090958 2773.3334450343  
! Port Impedance         50               0                50               0                
58                             0.127525669489974 -36.3124808417543 0.811245288265048 37.038796403861  0.811245288265048 37.038796403861  0.128347249477031 -35.6067873530405 
! Gamma         85.359262600161  2822.17354062178 84.6810113337856 2821.96928348827 
! Port Impedance         50               0                50               0                
59                             0.112665297475518 -38.986121045798 0.810307860400433 31.465455487836  0.810307860400432 31.465455487836  0.113737437542561 -37.9903812226402 
! Gamma         86.6714352366696 2870.81571607723 85.9857501740827 2870.61288172835 
! Port Impedance         50               0                50               0                
60                             0.0972135695022868 -40.7778324364381 0.809274451774754 25.8724886051554 0.809274451774754 25.8724886051554 0.0986124366768663 -39.4262581286701 
! Gamma         87.9826662386267 2919.4658788327  87.2895897040232 2919.26442655866 
! Port Impedance         50               0                50               0                
61                             0.0815252359291471 -41.1492659817789 0.808096428146692 20.2616977267502 0.808096428146692 20.2616977267502 0.0833620907956469 -39.3685027881794 
! Gamma         89.2930416940904 2968.12421628792 88.592613560761  2967.92410222137 
! Port Impedance         50               0                50               0                
62                             0.0661568537678569 -39.1048332247299 0.806731503912961 14.6355180355312 0.806731503912959 14.6355180355312 0.0685957845621328 -36.8595432666023 
! Gamma         90.6026430291655 3016.79091355843 89.8949008519348 3016.59209075639 
! Port Impedance         50               0                50               0                
63                             0.0521141299961037 -32.774514900421 0.805145468620012 8.99692276125272 0.805145468620012 8.99692276125272 0.0553744088787447 -30.2638005841332 
! Gamma         91.911547305753  3065.46615379709 91.1965264490307 3065.26857230974 
! Port Impedance         50               0                50               0                
64                             0.0413927767471552 -19.2249415205849 0.803313589801734 3.34930341230874 0.803313589801734 3.34930341230874 0.0456167326945486 -17.4597581547157 
! Gamma         93.2198275117296 3114.15011848679 92.4975612684838 3113.9537254069  
! Port Impedance         50               0                50               0                
65                             0.0373043889866237 2.21545301213742 0.801221595730241 -2.3036694930352 0.801221595730241 -2.3036694930352 0.0420823980411967 1.29247092958574 
! Gamma         94.5275528326087 3162.84298768298 93.7980725346318 3162.64772720264 
! Port Impedance         50               0                50               0                
66                             0.0417738874805033 23.1386796011323 0.798866166737644 -7.95819853088021 0.798866166737644 -7.95819853088021 0.0461565637872174 19.5187076132975 
! Gamma         95.8347889084321 3211.54494024727 95.0981240315558 3211.35075368954 
! Port Impedance         50               0                50               0                
67                             0.0523503390496486 35.9222798416074 0.796254898248771 -13.6105165664798 0.796254898248771 -13.6105165664798 0.0559106484384669 31.4436225556299 
! Gamma         97.1415980797535 3260.2561540398  96.3977763406185 3260.06297989676 
! Port Impedance         50               0                50               0                
68                             0.0657221430270275 41.788941291238  0.793405738402564 -19.2570408597621 0.793405738402564 -19.2570408597621 0.0685480918668804 37.4253134595812 
! Gamma         98.4480396176422 3308.97680609377 97.6970870663394 3308.78458004984 
! Port Impedance         50               0                50               0                
69                             0.0800030792759043 43.6145727684757 0.790345942955773 -24.8945161464106 0.790345942955773 -24.8945161464106 0.0822675247183405 39.59621736866   
! Gamma         99.754169938509  3357.70707276819 98.9961110441885 3357.51572771904 
! Port Impedance         50               0                50               0                
70                             0.0942582615758027 43.1668599925633 0.787110624851668 -30.5201396913299 0.787110624851668 -30.5201396913299 0.0960955217556815 39.4916912063963 
! Gamma         101.060042811481 3406.44712988246 100.294900541087 3406.25659595064 
! Port Impedance         50               0                50               0                
71                             0.107978674869998 41.3849972773356 0.783741001140765 -36.1316627666553 0.783741001140765 -36.1316627666553 0.109480869045835 38.0015072468955 
! Gamma         102.365709546022 3455.19715283881 101.593505439594 3455.00735738505 
! Port Impedance         50               0                50               0                
72                             0.120849346400618 38.7797075506592 0.780282453363605 -41.7274648048671 0.780282453363605 -41.7274648048671 0.122079270039206 35.6347499307114 
! Gamma         103.671219173108 3503.95731672088 102.89197341251  3503.76818434284 
! Port Impedance         50               0                50               0                
73                             0.132654961996344 35.6446643476767 0.776782518597846 -47.3065983967441 0.776782518597846 -47.306598396744 0.133656416429048 32.6934813322246 
! Gamma         104.976618612565 3552.72779638647 104.190350086534 3552.5392489307  
! Port Impedance         50               0                50               0                
74                             0.143239066457985 32.15867876461   0.773288918623323 -52.8688051132246 0.773288918623323 -52.8688051132246 0.144043504121736 29.3653728634533 
! Gamma         106.28195282913  3601.50876655239 105.488679191805 3601.32072310109 
! Port Impedance         50               0                50               0                
75                             0.15248473955665 28.4364439553006 0.769847716928493 -58.4145036798601 0.769847716928492 -58.4145036798601 0.153115384152985 25.7724047062014 
! Gamma         107.587264979551 3650.30040186153 106.78700270732  3650.11277874179 
! Port Impedance         50               0                50               0                
76                             0.160304472105051 24.5550819039701 0.766501671133933 -63.9447532048481 0.766501671133934 -63.9447532048481 0.160778888885163 21.9972897969124 
! Gamma         108.892596548543 3699.10287694176 108.085360991299 3698.91558770706 
! Port Impedance         50               0                50               0                
77                             0.166634288098524 20.5688383921504 0.763288825328563 -69.4611949177752 0.763288825328563 -69.4611949177752 0.16696601452946 18.0984655433469 
! Gamma         110.197987476142 3747.91636647219 109.383792903933 3747.72932189552 
! Port Impedance         50               0                50               0                
78                             0.171430002468943 16.5176968432843 0.760241365726859 -74.9659762592036 0.760241365726859 -74.9659762592036 0.171629599733183 14.1190302551095 
! Gamma         111.503476276465 3796.74104521968 110.682335925239 3796.55415328358 
! Port Impedance         50               0                50               0                
79                             0.174664680373749 12.4327427434779 0.757384745930864 -80.4616612097464 0.757384745930864 -80.4616612097464 0.17474041770182 10.0923679032706 
! Gamma         112.809100147063 3845.57708808639 111.981026258467 3845.39025397064 
! Port Impedance         50               0                50               0                
80                             0.176326877970069 8.33974604798439 0.754737075928718 -85.951130586406 0.754737075928718 -85.951130586406 0.176285175658359 6.04592237406256 
! Gamma         114.114895073524 3894.42467015188 113.279898932546 3894.23779621035 
! Port Impedance         50               0                50               0                
81                             0.176419478628913 4.26177132381251 0.752308761846527 -91.4374757392717 0.752308761846528 -91.4374757392717 0.176265184810225 2.00394335880529 
! Gamma         115.420895922707 3943.28396669769 114.57898789328  3943.09695244876 
! Port Impedance         50               0                50               0                
82                             0.174959048647506 0.221302127660475 0.750102380795374 -96.9238887545223 0.750102380795373 -96.9238887545223 0.174695593831884 -2.01029585837562 
! Gamma         116.727136532201 3992.15515324597 115.878326088281 3991.96789535309 
! Port Impedance         50               0                50               0                
83                             0.171975692235158 -3.75778667997898 0.748112775808899 -102.413551980403 0.748112775808899 -102.413551980403 0.171605145420919 -5.97246363623142 
! Gamma         118.033649792749 4041.03840558148 117.177945549321 4040.8507978274  
! Port Impedance         50               0                50               0                