! Touchstone file exported from HFSS 2024.2.0
!        File:           C:/Users/vaintrug/Documents/Ansoft_Workspace/Comparaison_Calculs_HFSS/1_VarPort.aedt
!        Generated:      03:22:18 PM Jan 21, 2025
!        Design:         1_NoDeembed_FacePortFree
!        Project:        1_VarPort
!        Setup:          Setup1
!        Solution:       Sweep
!
! Variables:
!        $Lenght = 1500um
!        $PortSize = 380um
!        Gap = 30um
!        Th = 2um
!        X_centralStrip = 20um
!        X_masse = 200um
!        Y_Sub = 1.5mm
!        Z_Box = 400um
!        Z_Sub = 200um
!
# GHz S MA R 50.000000
! Terminal data exported
! Port[1] = 1
! Port[2] = 2
1                              0.0207990213856316 62.6625233068434 0.989097664051497 -4.42719884070373 0.989097664051497 -4.42719884070373 0.0208017259871673 62.6552218993763 
! Gamma         5.93621593033373 49.983116828556  6.00137145909168 50.0067151179889 
! Port Impedance         50               0                50               0                
2                              0.0371704643331573 69.6350473406514 0.986568893999802 -8.75403174322394 0.986568893999802 -8.75403174322394 0.0371759895138408 69.610688939145  
! Gamma         7.77883917496663 98.6770866381235 7.81702702728864 98.602674917338  
! Port Impedance         50               0                50               0                
3                              0.0538981657564718 70.0022643305666 0.984082490150549 -13.0846163778618 0.98408249015055 -13.0846163778618 0.0539047067104422 69.963142506697  
! Gamma         9.27839865794758 147.307092225474 9.25877043868205 147.217753149004 
! Port Impedance         50               0                50               0                
4                              0.0704936345492899 68.1709962994292 0.9813415943528  -17.4132739986661 0.9813415943528  -17.4132739986661 0.0705001661773638 68.1178966545357 
! Gamma         10.6598159746432 195.979672353928 10.6032916849541 195.900405057558 
! Port Impedance         50               0                50               0                
5                              0.0866951682909029 65.3767257775057 0.97830318454882 -21.7344055560605 0.978303184548819 -21.7344055560605 0.086700886779506 65.3097474666181 
! Gamma         12.0136213655704 244.682723676053 11.9336687476337 244.61770718886  
! Port Impedance         50               0                50               0                
6                              0.102335186034625 62.091227994167  0.974981893850925 -26.0440913132969 0.974981893850924 -26.044091313297 0.102339355288165 62.0101980053945 
! Gamma         13.3719778536255 293.397475444275 13.2755318349009 293.346293920774 
! Port Impedance         50               0                50               0                
7                              0.117288684610038 58.5314164509697 0.971412157793854 -30.3394469590604 0.971412157793854 -30.3394469590604 0.117290586419532 58.4360194131287 
! Gamma         14.7463718466385 342.110713535129 14.6369427797156 342.072213239671 
! Port Impedance         50               0                50               0                
8                              0.131455338563847 54.8106195223724 0.967637466883424 -34.6183328682424 0.967637466883424 -34.6183328682424 0.131454249108527 54.7004418797928 
! Gamma         16.1402931934949 390.813776251794 16.0196330764795 390.786939808445 
! Port Impedance         50               0                50               0                
9                              0.144752459831646 50.9937334174642 0.963705806258884 -38.8792317047154 0.963705806258884 -38.8792317047154 0.144747633955407 50.8682791842122 
! Gamma         17.5537910231086 439.501003448235 17.4227162879734 439.485108695377 
! Port Impedance         50               0                50               0                
10                             0.15711168892042 47.1204854158638 0.959666972704651 -43.1211856665911 0.959666972704651 -43.1211856665911 0.157102347608645 46.9791809732581 
! Gamma         18.985323899404  488.16873583746  18.8441349635482 488.163342737087 
! Port Impedance         50               0                50               0                
11                             0.168477047734098 43.2163915384797 0.955570662507923 -47.3437517793557 0.955570662507922 -47.3437517793557 0.168462367772629 43.0585854017079 
! Gamma         20.4326097434463 536.814712838471 20.2813163391695 536.819616236988 
! Port Impedance         50               0                50               0                
12                             0.178803505237253 39.2983910812932 0.951464998928637 -51.5469601576009 0.951464998928638 -51.5469601576009 0.178782610891296 39.1233507306891 
! Gamma         21.8930611060186 585.437696502041 21.7315098135902 585.452879288254 
! Port Impedance         50               0                50               0                
13                             0.188055746667289 35.3779630180301 0.947395383053973 -55.731270360058 0.947395383053973 -55.731270360058 0.188027703332723 35.184869567701  
! Gamma         23.3640278921036 634.037219638261 23.1919777845767 634.062813497328 
! Port Impedance         50               0                50               0                
14                             0.196207042163512 31.4629620586726 0.943403614176575 -59.897525047453 0.943403614176575 -59.897525047453 0.196170851859852 31.2509029652586 
! Gamma         24.8429400253184 682.613404698896 24.6601093008766 682.649658620506 
! Port Impedance         50               0                50               0                
15                             0.203238191561292 27.5587636778067 0.939527242598335 -64.0469016533042 0.939527242598335 -64.0469016533042 0.203192790020262 27.3267234389876 
! Gamma         26.3273925052092 731.166825643041 26.1334880894799 731.214080708616 
! Port Impedance         50               0                50               0                
16                             0.209136552114115 23.6690170035803 0.935799121408557 -68.1808631961269 0.935799121408557 -68.1808631961269 0.209080807116171 23.4158656368832 
! Gamma         27.8151943826587 779.69839806243  27.6099309807481 779.757067032386 
! Port Impedance         50               0                50               0                
17                             0.213895164060269 19.7961656794876 0.932247124845497 -72.3011093223847 0.932247124845497 -72.3011093223847 0.213827874587097 19.5206446120918 
! Gamma         29.3043936521715 828.209289877818 29.0875060501917 828.279840491172 
! Port Impedance         50               0                50               0                
18                             0.217511988478957 15.9418268324731 0.928894002399093 -76.4095284231487 0.928894002399092 -76.4095284231488 0.21743188419936 15.6425317562844 
! Gamma         30.7932857038743 876.700847927734 30.5645364555375 876.783789052742 
! Port Impedance         50               0                50               0                
19                             0.219989267519168 12.1070815089418 0.925757340732465 -80.5081514208251 0.925757340732464 -80.5081514208251 0.219895008060234 11.7824415310702 
! Gamma         32.280410303921  925.174537728192 32.0395942671298 925.27040775444  
! Port Impedance         50               0                50               0                
20                             0.221333012528625 8.29270990432924 0.922849609331331 -84.5991075560264 0.922849609331331 -84.5991075560265 0.221223185931667 7.94096216723499 
! Gamma         33.7645408501986 973.631894447406 33.5114874559116 973.741251581199 
! Port Impedance         50               0                50               0                
21                             0.221552621055029 4.49939371926102 0.920178270302302 -88.6845823215017 0.920178270302302 -88.6845823215017 0.221425740718871 4.11855234162219 
! Gamma         35.244668573255  1022.07448348073 34.9792424535868 1022.19789754553 
! Port Impedance         50               0                50               0                
22                             0.220660620090047 0.727901965007071 0.917745937362801 -92.7667775594345 0.9177459373628  -92.7667775594345 0.220515119384681 0.315719826455662 
! Gamma         36.7199837522976 1070.50386932248 36.4420841912596 1070.64191494347 
! Port Impedance         50               0                50               0                
23                             0.218672530125768 -3.02072626058867 0.915550573513969 -96.8478736598167 0.915550573513969 -96.8478736598167 0.218506753653466 -3.46680490334836 
! Gamma         38.1898554494651 1118.92159158112 37.8994149855312 1119.07484254677 
! Port Impedance         50               0                50               0                
24                             0.215606842581131 -6.74498915543172 0.913585720899104 -100.92999377763 0.913585720899104 -100.92999377763 0.215419032765029 -7.22788793921913 
! Gamma         39.6538109214175 1167.3291469863  39.3507933581209 1167.49817160144 
! Port Impedance         50               0                50               0                
25                             0.211485101625545 -10.4427055782196 0.911840759825814 -105.015170010708 0.911840759825814 -105.015170010708 0.211273378857507 -10.9657909121974 
! Gamma         41.1115154733702 1215.72797645133 40.7959135061041 1215.91333384059 
! Port Impedance         50               0                50               0                
26                             0.206332080813429 -14.1107567556664 0.910301196662945 -109.105311516261 0.910301196662946 -109.105311516261 0.206094414728363 -14.6779334545003 
! Gamma         42.5627533333113 1264.11945627769 42.2345859416233 1264.32169345955 
! Port Impedance         50               0                50               0                
27                             0.200176044639199 -17.7447623110774 0.908948982428811 -113.202174640831 0.908948982428811 -113.202174640831 0.199910213066032 -18.3605972758774 
! Gamma         44.0074098752231 1312.50489275809 43.6667196113898 1312.72454239751 
! Port Impedance         50               0                50               0                
28                             0.193049086123804 -21.3386558283216 0.907762865156597 -117.307335202884 0.907762865156597 -117.307335202884 0.192752616762657 -22.0085401024594 
! Gamma         45.4454554152752 1360.88551941118 45.0923056700362 1361.12309821857 
! Port Impedance         50               0                50               0                
29                             0.184987534053368 -24.884107040763 0.906718779665884 -121.422163184222 0.906718779665884 -121.422163184222 0.184657621537045 -25.6144713801736 
! Gamma         46.8769306375447 1409.26249636781 46.5114029654398 1409.51850398278 
! Port Impedance         50               0                50               0                
30                             0.176032428868218 -28.369707342863 0.905790278116602 -125.547800165244 0.905790278116602 -125.547800165244 0.175665816177474 -29.1683135663583 
! Gamma         48.3019336654185 1457.63691134198 47.9241252232084 1457.9118296585  
! Port Impedance         50               0                50               0                
31                             0.166230077001521 -31.7797826019317 0.904949003683508 -129.685139936402 0.904949003683508 -129.685139936402 0.165822884129215 -32.656124427576 
! Gamma         49.7206087255657 1506.00978177936 49.3306298581866 1506.30407464071 
! Port Impedance         50               0                50               0                
32                             0.155632713990769 -35.0926036147255 0.904165207921527 -133.834812777225 0.904165207921526 -133.834812777225 0.155180186660804 -36.0584688116881 
! Gamma         51.1331363164622 1554.38205786964 50.7311082990934 1554.69617107934 
! Port Impedance         50               0                50               0                
33                             0.144299346385754 -38.2775916838195 0.903408309944019 -137.997173940845 0.903408309944018 -137.997173940845 0.14379548015693 -39.3478668933367 
! Gamma         52.539724741628  1602.75462614068 52.1257777271857 1603.08898768688 
! Port Impedance         50               0                50               0                
34                             0.132296920701718 -41.2907841261142 0.902647492545147 -142.172296889814 0.902647492545147 -142.172296889814 0.131733884441314 -42.4846322159518 
! Gamma         53.9406029183301 1651.12831340496 53.5148740562964 1651.48333392232 
! Port Impedance         50               0                50               0                
35                             0.119702128508152 -44.0671526351134 0.901852327028839 -146.359971795036 0.901852327028838 -146.359971795036 0.119069352544567 -45.4097717159646 
! Gamma         55.3360142925138 1699.50389090135 54.8986460517002 1699.87996424694 
! Port Impedance         50               0                50               0                
36                             0.106604506083574 -46.5069337111949 0.900993414999063 -150.559709736804 0.900993414999063 -150.559709736804 0.105887185662772 -48.0322293678333 
! Gamma         56.7262117644493 1747.88207849531 56.2773504400471 1748.27958244662 
! Port Impedance         50               0                50               0                
37                             0.0931123004018925 -48.449874149923 0.900043032020186 -154.770752921075 0.900043032020185 -154.770752921075 0.0922888301961898 -50.2045252627407 
! Gamma         58.1114534873681 1796.26354882835 57.6512478757599 1796.68284588658 
! Port Impedance         50               0                50               0                
38                             0.0793646308416741 -49.623378614309 0.898975755167419 -158.992091058736 0.898975755167419 -158.992091058736 0.0784019867426248 -51.6727234591364 
! Gamma         59.4919994154564 1844.64893138039 59.0205996733969 1845.09036958849 
! Port Impedance         50               0                50               0                
39                             0.0655592063275831 -49.5299658074038 0.897769054412601 -163.222483848947 0.897769054412602 -163.222483848947 0.0644042271870829 -51.9643988598103 
! Gamma         60.8681085261863 1893.03881634774 60.3856651707073 1893.50273016714 
! Port Impedance         50               0                50               0                
40                             0.0520225506935583 -47.1839540946373 0.896403826806041 -167.460489274441 0.896403826806042 -167.460489274441 0.050585197923953 -50.1121052117901 
! Gamma         62.2400365926716 1941.43375833235 61.7466996548521 1941.92046953137 
! Port Impedance         50               0                50               0                
41                             0.039408583171699 -40.4789633216995 0.894864852759134 -171.704497169254 0.894864852759134 -171.704497169254 0.0375349959165126 -43.915044556818 
! Gamma         63.6080344426912 1989.83427982029 63.1039527486376 1990.34409834006 
! Port Impedance         50               0                50               0                
42                             0.0292776848123077 -25.1063078348641 0.893141155515752 -175.9527672764  0.893141155515753 -175.9527672764  0.0267742465481508 -28.2496174310031 
! Gamma         64.9723466176136 2038.24087443144 64.4576671864189 2038.77409926439 
! Port Impedance         50               0                50               0                
43                             0.0250435871010862 2.34812071227478 0.891226248107783 179.796529208133 0.891226248107782 179.796529208133 0.022158378323916 2.51133442713459 
! Gamma         66.3332103797354 2086.65400992466 65.8080779268322 2087.21092995574 
! Port Impedance         50               0                50               0                
44                             0.0293346272154815 29.5419083843122 0.88911825654747 175.545265787912 0.88911825654747 175.545265787912 0.0269911133067092 32.7280728353898 
! Gamma         67.6908549943559 2135.07413099787 67.1554115335716 2135.65502581272 
! Port Impedance         50               0                50               0                
45                             0.0392926624123721 44.6100775544874 0.886819913414882 171.295315819938 0.886819913414882 171.295315819938 0.0376282713480421 47.8386350199385 
! Gamma         69.0455012545097 2183.50166185511 68.4998857768818 2184.10680252435 
! Port Impedance         50               0                50               0                
46                             0.0515146690488627 51.1736322695433 0.884338421929999 167.048508039914 0.884338421930001 167.048508039914 0.0502912862333459 53.7922991291361 
! Gamma         70.3973611974321 2231.93700856319 69.8417094256115 2232.56665838325 
! Port Impedance         50               0                50               0                
47                             0.0644742250551873 53.4734763218255 0.881685196597023 162.806583801767 0.881685196597023 162.806583801767 0.0635222250851484 55.5494124638826 
! Gamma         71.7466379783387 2280.38056120759 71.1810821856511 2281.03497640158 
! Port Impedance         50               0                50               0                
48                             0.0775356438194221 53.5706719491311 0.878875492066149 158.571157300363 0.878875492066148 158.571157300363 0.0767564007184474 55.2304011943129 
! Gamma         73.0935258724476 2328.83269588019 72.5181947532007 2329.51212625083 
! Port Impedance         50               0                50               0                
49                             0.090385053270136 52.4313227225998 0.875927936568971 154.343679894541 0.875927936568972 154.343679894541 0.0897189631725463 53.7714152507545 
! Gamma         74.4382103799326 2377.29377645571 73.8532289708157 2377.99846601195 
! Port Impedance         50               0                50               0                
50                             0.102836411831744 50.5444105466556 0.87286398979083 150.125409445273 0.872863989790829 150.125409445273 0.102244819928576 51.6318305895965 
! Gamma         75.7808684108637 2425.76415625314 75.1863580481556 2426.49434378164 
! Port Impedance         50               0                50               0                
51                             0.114762751256366 48.1786960432207 0.86970734715146 145.917385353939 0.86970734715146 145.917385353939 0.114218800805395 49.0596848413941 
! Gamma         77.1216685320469 2474.24417952366 76.5177468456504 2475.0000991214  
! Port Impedance         50               0                50               0                
52                             0.126068906547789 45.4927313074502 0.866483313119656 141.720409734657 0.866483313119656 141.720409734657 0.125552753582734 46.1996757898368 
! Gamma         78.4607712620421 2522.73418279945 77.8475521986581 2523.51606437573 
! Port Impedance         50               0                50               0                
53                             0.136679461199321 42.5856631945036 0.8632181654652  137.535034901823 0.8632181654652  137.535034901823 0.136175633663652 43.1415903674415 
! Gamma         79.798329402664  2571.23449614642 79.1759232681123 2572.04256587474 
! Port Impedance         50               0                50               0                
54                             0.146532869286811 39.5225234518206 0.859938530462476 133.361557129362 0.859938530462476 133.361557129362 0.146028730130522 39.9439706464949 
! Gamma         81.1344883918638 2619.7454442865  80.5030019166685 2620.57992502977 
! Port Impedance         50               0                50               0                
55                             0.155578304874398 36.3476818406513 0.856670786292462 129.200016428073 0.856670786292463 129.200016428073 0.155063113652217 36.6465470229792 
! Gamma         82.4693866741583 2668.2673476198  81.8289230952964 2669.12845931937 
! Port Impedance         50               0                50               0                
56                             0.163773799162619 33.0924246962249 0.853440508565674 125.05020193291  0.853440508565674 125.05020193291  0.163238113824268 33.2771806197381 
! Gamma         83.8031560842558 2716.80052318076 83.1538152343345 2717.68848320395 
! Port Impedance         50               0                50               0                
57                             0.171085021048292 29.7794423547558 0.850271968332422 120.911662367012 0.850271968332422 120.911662367012 0.170520301103909 29.8559472148942 
! Gamma         85.1359222275536 2765.34528548279 84.4778006395057 2766.26030895771 
! Port Impedance         50               0                50               0                
58                             0.177484398021081 26.4256064890419 0.84718768946855 116.783720973199 0.84718768946855 116.783720973199 0.176882730877147 26.3976520833004 
! Gamma         86.4678048671701 2813.9019473142  85.800995881763  2814.84424741829 
! Port Impedance         50               0                50               0                
59                             0.1829504309274  23.0437602881381 0.844208069139265 112.66549426756  0.844208069139265 112.66549426756  0.182304335379206 22.9134442266823 
! Gamma         87.7989183040287 2862.47082046784 87.1235121836258 2863.4406086985  
! Port Impedance         50               0                50               0                
60                             0.187467131717424 19.6439181461987 0.841351062340341 108.555913965722 0.841351062340341 108.555913965722 0.186769410345928 19.4118940882501 
! Gamma         89.1293717492967 2911.05221640676 88.4454557959375 2912.04970283002 
! Port Impedance         50               0                50               0                
61                             0.191023550978584 16.2341019436557 0.838631929395442 104.453751452595 0.838631929395442 104.453751452595 0.190267173313477 15.8997418604577 
! Gamma         90.4592696913704 2959.64644689117 89.7669283661482 2960.67184035591 
! Port Impedance         50               0                50               0                
62                             0.193613381122495 12.8209491381099 0.836063043766979 100.357644213552 0.836063043766979 100.357644213552 0.192791385307223 12.3824390567347 
! Gamma         91.7887122508112 3008.25382455367 91.0880272930817 3009.30733289511 
! Port Impedance         50               0                50               0                
63                             0.195234630466376 9.41017647178366 0.833653756628504 96.2661236888214 0.833653756628504 96.2661236888214 0.1943400345569  8.86455891085854 
! Gamma         93.1177955260539 3056.87466344574 92.4088460735187 3057.95649366802 
! Port Impedance         50               0                50               0                
64                             0.195889367763414 6.00695362556152 0.831410314261985 92.1776440776254 0.831410314261985 92.1776440776254 0.194915083659671 5.35012426446063 
! Gamma         94.4466119259934 3105.50927954619 93.7294746312237 3106.61963797971 
! Port Impedance         50               0                50               0                
65                             0.19558353834166 2.61622414160823 0.829335824412481 88.0906116617744 0.829335824412481 88.0906116617744 0.194522282189029 1.84288604681452 
! Gamma         95.7752504915784 3154.15799124672 95.0499996400558 3155.2970836966  
! Port Impedance         50               0                50               0                
66                             0.194326853217414 -0.756998584898743 0.827430268138841 84.0034142738027 0.827430268138841 84.0034142738027 0.193171046183163 -1.65342328993969 
! Gamma         97.1037972067584 3202.82111981223 96.3705048281474 3203.98915169106 
! Port Impedance         50               0                50               0                
67                             0.19213275216657 -4.10733708639117 0.825690554342808 79.914450558703  0.825690554342807 79.914450558703  0.190874404856812 -5.13484140708006 
! Gamma         98.4323352941559 3251.498989828   97.6910712753151 3252.69616625884 
! Port Impedance         50               0                50               0                
68                             0.189018441340107 -7.42873523446066 0.824110614894983 75.8221587108654 0.824110614894982 75.8221587108654 0.187649013761384 -8.59691394397608 
! Gamma         99.7609455032754 3300.19192961935 99.0117776923836 3301.41845555262 
! Port Impedance         50               0                50               0                
69                             0.185005005924582 -10.7140989094729 0.822681539037412 71.7250443674151 0.822681539037411 71.7250443674151 0.183515232633773 -12.0343980327281 
! Gamma         101.089706384471 3348.9002716727  100.332700696221 3350.15635196828 
! Port Impedance         50               0                50               0                
70                             0.18011759921603 -13.9548616815786 0.821391746378856 67.6217073416837 0.821391746378856 67.6217073416837 0.178497265825082 -15.4409059264274 
! Gamma         102.418694554812 3397.62435304177 101.653915070035 3398.91019254708 
! Port Impedance         50               0                50               0                
71                             0.17438571183148 -17.1404346179481 0.82022719825114 63.5108668624452 0.82022719825114 63.5108668624452 0.172623363814443 -18.8084539092582 
! Gamma         103.747984950864 3446.36451574789 102.975494011232 3447.68031937352 
! Port Impedance         50               0                50               0                
72                             0.167843529699303 -20.2574815607848 0.819171647372327 59.3913849650536 0.819171647372327 59.3913849650536 0.16592608661637 -22.1268658015839 
! Gamma         105.077651074516 3495.12110718091 104.297509375302 3496.46707994978 
! Port Impedance         50               0                50               0                
73                             0.160530398720395 -23.2889322011145 0.818206925598874 55.2622876533444 0.818206925598874 55.2622876533444 0.158442635087815 -25.3829538053259 
! Gamma         106.407765230251 3543.89448049244 105.620031906154 3545.27082760311 
! Port Impedance         50               0                50               0                
74                             0.152491430512246 -26.2125976214062 0.817313269014856 51.1227834319866 0.817313269014856 51.1227834319866 0.150215266287641 -28.5593545171247 
! Gamma         107.738398750457 3592.68499500169 106.943131461257 3594.09192186201 
! Port Impedance         50               0                50               0                
75                             0.143778312867549 -28.9991736036686 0.816469678692877 46.9722787859935 0.816469678692877 46.9722787859935 0.14129182800026 -31.6328203520658 
! Gamma         109.069622220073 3641.49301659594 108.266877228871 3642.93072886069 
! Port Impedance         50               0                50               0                
76                             0.134450440719849 -31.6092820945108 0.815654314158655 42.8103901883656 0.815654314158655 42.8103901883655 0.131726482971035 -34.5716287125599 
! Gamma         110.401505687885 3690.31891813745 109.591337936263 3691.78762173673 
! Port Impedance         50               0                50               0                
77                             0.12457657780604 -33.9889670496834 0.814844915000764 38.636952223269  0.814844915000764 38.636952223269  0.121580760347295 -37.3315176786555 
! Gamma         111.734118875912 3739.16307988674 110.916582057428 3740.66298104964 
! Port Impedance         50               0                50               0                
78                             0.114237435048956 -36.0626463548563 0.81401924422811 34.4520214550535 0.81401924422811 34.4520214550534 0.110925203064839 -39.8490726257202 
! Gamma         113.067531383363 3788.0258899274  112.242678010027 3789.55719519983 
! Port Impedance         50               0                50               0                
79                             0.103529888979906 -37.7217780249941 0.813155545055371 30.255875734657  0.813155545055371 30.255875734657  0.0998421484389292 -42.0305237769783 
! Gamma         114.401812885946 3836.90774460641 113.569694353308 3838.47066085107 
! Port Impedance         50               0                50               0                
80                             0.0925742314990276 -38.8061719110685 0.812233000931113 26.0490087238772 0.812233000931113 26.0490087238772 0.0884307594393975 -43.7319096613957 
! Gamma         115.737033331702 3885.80904898719 114.897699977985 3887.40378340608 
! Port Impedance         50               0                50               0                
81                             0.081527198653908 -39.072634552647 0.811232186986405 21.832119540622  0.811232186986405 21.832119540622  0.0768167571329763 -44.7222232099864 
! Gamma         117.073263132671 3934.73021731969 116.226764298725 3936.35697743924 
! Port Impedance         50               0                50               0                
82                             0.0706062847243405 -38.1426239139593 0.810135499881646 17.6060975665147 0.810135499881646 17.6060975665147 0.0651725716931238 -44.6115614717998 
! Gamma         118.410573358467 3983.67167353377 117.556957440397 3985.33066720567 
! Port Impedance         50               0                50               0                
83                             0.0601360711149892 -35.420936066842 0.808927552404373 13.3720026211017 0.808927552404372 13.3720026211017 0.0537620970535635 -42.7060643483355 
! Gamma         119.749035925309 4032.63385173336 118.888350425267 4034.32528712485 
! Port Impedance         50               0                50               0                