! Touchstone file exported from HFSS 2024.2.0
!        File:           C:/Users/vaintrug/Documents/Ansoft_Workspace/Comparaison_Calculs_HFSS/1_VarPort.aedt
!        Generated:      03:22:16 PM Jan 21, 2025
!        Design:         1_NoDeembed_FacePortFree
!        Project:        1_VarPort
!        Setup:          Setup1
!        Solution:       Sweep
!
! Variables:
!        $Lenght = 1500um
!        $PortSize = 200um
!        Gap = 30um
!        Th = 2um
!        X_centralStrip = 20um
!        X_masse = 200um
!        Y_Sub = 1.5mm
!        Z_Box = 400um
!        Z_Sub = 200um
!
# GHz S MA R 50.000000
! Terminal data exported
! Port[1] = 1
! Port[2] = 2
1                              0.0211000073826184 62.9586543391751 0.989088533012323 -4.43283779477618 0.989088533012322 -4.43283779477618 0.0211014241883221 62.959463311733  
! Gamma         5.83249020542503 49.9500103290363 5.80716342082397 49.8956098899654 
! Port Impedance         50               0                50               0                
2                              0.0377865950499363 69.7637187552159 0.986539004908137 -8.7644221260841 0.986539004908137 -8.7644221260841 0.0377924640245069 69.7585977647303 
! Gamma         7.55830762935833 98.5814876914264 7.50515876779042 98.5025730220702 
! Port Impedance         50               0                50               0                
3                              0.0548125512404486 70.0479469666552 0.984024959506663 -13.0994063246116 0.984024959506663 -13.0994063246116 0.0548233541196222 70.0352246359467 
! Gamma         8.9531930150248  147.273210353901 8.88358291232795 147.178493501757 
! Port Impedance         50               0                50               0                
4                              0.071695603773543 68.1696944257636 0.981249729088079 -17.4321826987284 0.981249729088079 -17.4321826987284 0.0717111435096194 68.1493222876879 
! Gamma         10.2758690331444 196.028996935138 10.1948826166236 195.919253761792 
! Port Impedance         50               0                50               0                
5                              0.0881751779095227 65.3445124148306 0.978169937058391 -21.75711927312  0.978169937058391 -21.75711927312  0.0881952113234335 65.316538835603  
! Gamma         11.5927051744605 244.812630759032 11.5025937534437 244.687697003432 
! Port Impedance         50               0                50               0                
6                              0.104082962339579 62.0363916205653 0.974800651040714 -26.0702282471425 0.974800651040715 -26.0702282471424 0.104107292915947 62.000744606921  
! Gamma         12.9231595142569 293.6030478699   12.8249253498777 293.462690708371 
! Port Impedance         50               0                50               0                
7                              0.119292884226963 58.4588163930649 0.971177254704484 -30.3685602052623 0.971177254704483 -30.3685602052623 0.119321352878668 58.4152942410343 
! Gamma         14.2731267067374 342.388233454811 14.1671407765016 342.232330065769 
! Port Impedance         50               0                50               0                
8                              0.133703625196414 54.7234162043896 0.967344460869995 -34.6499224837344 0.967344460869996 -34.6499224837344 0.133736084572128 54.6717035963647 
! Gamma         15.6435987763991 391.16086990959  15.5299016331329 390.989439951677 
! Port Impedance         50               0                50               0                
9                              0.147231690144249 50.8941599710203 0.963351612662998 -38.9127586774243 0.963351612662999 -38.9127586774243 0.147267979141038 50.8338412727352 
! Gamma         17.0334825903073 439.916304118397 16.9119464144802 439.729497390425 
! Port Impedance         50               0                50               0                
10                             0.159808116739726 47.0102258932685 0.95924991477226 -43.1560858869824 0.959249914772261 -43.1560858869824 0.159848038043193 46.940792805379  
! Gamma         18.4407234187793 488.651568963669 18.3111428289728 488.44964104349  
! Port Impedance         50               0                50               0                
11                             0.171376513566915 43.0967801151513 0.955090463303521 -47.3794494115177 0.955090463303521 -47.3794494115177 0.171419814399863 43.0176348073135 
! Gamma         19.8628356321744 537.364864428463 19.7249795893844 537.148151742913 
! Port Impedance         50               0                50               0                
12                             0.181891597592406 39.1705227462577 0.950922732178088 -51.5828801031415 0.950922732178087 -51.5828801031415 0.181937953413636 39.0809775011484 
! Gamma         21.2971882491306 586.055249350099 21.1508298233897 585.824147226256 
! Port Impedance         50               0                50               0                
13                             0.191317928714359 35.2427574547906 0.946793395017355 -55.7668496720682 0.946793395017354 -55.7668496720682 0.191366929574859 35.1420315825214 
! Gamma         22.7411724932779 634.722436668029 22.5861055706255 634.477381113297 
! Port Impedance         50               0                50               0                
14                             0.199628741422663 31.3212014803585 0.942745425850798 -59.932223221994 0.942745425850798 -59.932223221994 0.199679880664137 31.2084158061118 
! Gamma         24.1923042379883 683.366644212176 24.0283524277095 683.108097031216 
! Port Impedance         50               0                50               0                
15                             0.206804852839777 27.4111155611643 0.938817439519741 -64.0802097852265 0.938817439519741 -64.0802097852265 0.206857517799924 27.2852846072109 
! Gamma         25.6482863897277 731.988478379079 25.4753069804291 731.716915324479 
! Port Impedance         50               0                50               0                
16                             0.21283365556124 23.5160478130882 0.93504323660737 -68.2123120350577 0.93504323660737 -68.2123120350577 0.212887119901006 23.3760695479547 
! Gamma         27.1070444342817 780.588839631307 26.9249293508519 780.304740973023 
! Port Impedance         50               0                50               0                
17                             0.21770821145572 19.6383490822987 0.931451518932305 -72.3302762853358 0.931451518932305 -72.3302762853358 0.21776162868582 19.4829919803622 
! Gamma         28.5667431935114 829.168844379154 28.3754180342717 828.872687575305 
! Port Impedance         50               0                50               0                
18                             0.221426461473391 15.7795484960972 0.928065743412536 -76.4360436497882 0.928065743412537 -76.4360436497882 0.221478859210821 15.6074355091525 
! Gamma         30.0257902438593 877.729759964088 29.825212152709  877.422013987675 
! Port Impedance         50               0                50               0                
19                             0.22399056222439 11.9406417780304 0.924904085140298 -80.5317029444594 0.924904085140298 -80.5317029444594 0.224040836647763 11.7502305836867 
! Gamma         31.4828298170728 926.272950924919 31.2729847026235 925.954072068213 
! Port Impedance         50               0                50               0                
20                             0.225406355009699 8.12232517116901 0.92197948462667 -84.61944566212  0.921979484626671 -84.6194456621199 0.225453264925187 7.91188389880752 
! Gamma         32.9367302821761 974.799835021119 32.7176296984367 974.470263828348 
! Port Impedance         50               0                50               0                
21                             0.225682968472225 4.32519699901601 0.919299758871683 -88.7015231518118 0.919299758871683 -88.7015231518118 0.225725128303091 4.09277433841065 
! Gamma         34.3865673979007 1023.31184797616 34.1582453269103 1022.97200716255 
! Port Impedance         50               0                50               0                
22                             0.224832552344388 0.54994305234352 0.916867760771428 -92.7802059917083 0.916867760771427 -92.7802059917083 0.224868423219969 0.293331258152288 
! Gamma         35.8316052015831 1071.81041565073 35.5941148915645 1071.46070877855 
! Port Impedance         50               0                50               0                
23                             0.222870137027694 -3.2024808124038 0.914681576019758 -96.8577454709348 0.914681576019758 -96.8577454709348 0.22289801494874 -3.48579199795853 
! Gamma         37.2712758242571 1120.29693275652 37.0246867702032 1119.93774354305 
! Port Impedance         50               0                50               0                
24                             0.219813611497353 -6.93065605301889 0.912734750937841 -100.936337076624 0.91273475093784 -100.936337076624 0.219831611254725 -7.24353726441919 
! Gamma         38.7051592641974 1168.77274707495 38.4495544141848 1168.40443919117 
! Port Impedance         50               0                50               0                
25                             0.21568381092477 -10.632484673028 0.911016548239948 -105.018085891209 0.911016548239947 -105.018085891209 0.215689844005961 -10.9782402760534 
! Gamma         40.1329638104402 1217.23914831355 39.8684369986836 1216.86206556749 
! Port Impedance         50               0                50               0                
26                             0.210504704420574 -14.304930709098 0.909512230759189 -109.104973867317 0.909512230759188 -109.104973867317 0.210496448474902 -14.6873928141079 
! Gamma         41.5545076043911 1265.69736071794 41.2811612574856 1265.31182753025 
! Port Impedance         50               0                50               0                
27                             0.204303673274442 -17.9436960261071 0.90820337536371 -113.198829023069 0.90820337536371 -113.198829023069 0.204278529710758 -18.3673464507938 
! Gamma         42.9697016225616 1314.14853881318 42.6876447313113 1313.75486092131 
! Port Impedance         50               0                50               0                
28                             0.197111870962216 -21.5427956886595 0.907068220756079 -117.301296696628 0.907068220756079 -117.301296696628 0.197066905728439 -22.0129263493329 
! Gamma         44.3785342762601 1362.593765526   44.0878806046325 1362.19223080799 
! Port Impedance         50               0                50               0                
29                             0.188964658718216 -25.0939801928386 0.906082053505138 -121.413813096158 0.906082053505139 -121.413813096158 0.188896518952501 -25.616907201374 
! Gamma         45.7810576282259 1411.03405220646 45.4819241778442 1410.62493164905 
! Port Impedance         50               0                50               0                
30                             0.179902115929065 -28.5859214457081 0.905217636513506 -125.537581495643 0.905217636513506 -125.537581495643 0.179806911413569 -29.1692757014009 
! Gamma         47.1773752504361 1459.47034009535 46.8698809389217 1459.05388878958 
! Port Impedance         50               0                50               0                
31                             0.169969635378053 -32.0030269495045 0.904445683161225 -129.673551514818 0.904445683161225 -129.673551514818 0.169842767617392 -32.6561558280166 
! Gamma         48.5676316364262 1507.90350277133 48.2518961853261 1507.47996095994 
! Port Impedance         50               0                50               0                
32                             0.159218634357728 -35.3236532986599 0.903735378581231 -133.822402003415 0.903735378581231 -133.822402003415 0.159054545833153 -36.0581872436948 
! Gamma         49.952003061806  1556.33434937894 49.6281460576465 1555.90394349868 
! Port Impedance         50               0                50               0                
33                             0.147707453048618 -38.5173179640869 0.903054947025483 -137.984528098736 0.903054947025483 -137.984528098736 0.147499251384894 -39.3479874540252 
! Gamma         51.3306897787859 1604.76362829475 50.9988299045119 1604.3265720023  
! Port Impedance         50               0                50               0                
34                             0.135502591460206 -41.5401771426164 0.902372261165415 -142.160033057077 0.902372261165416 -142.160033057077 0.135241471098229 -42.4860188484835 
! Gamma         52.7039093958789 1653.19203108913 52.3641638050293 1652.74852625289 
! Port Impedance         50               0                50               0                
35                             0.122680600872702 -44.3273688206851 0.901655485569086 -146.348725424168 0.901655485569086 -146.348725424168 0.122354924338923 -45.4135502830148 
! Gamma         54.0718913513877 1701.62019657633 53.7243751601663 1701.17043425973 
! Port Impedance         50               0                50               0                
36                             0.109331303468903 -46.7793941351118 0.900873742796085 -150.550122047515 0.900873742796085 -150.550122047515 0.108925085057897 -48.0400367875253 
! Gamma         55.4348722959092 1750.04871492132 55.0796981947317 1749.59287627793 
! Port Impedance         50               0                50               0                
37                             0.0955638465266758 -48.7364733255749 0.899997786855299 -154.763457315138 0.899997786855298 -154.763457315138 0.0950541341062722 -50.2190775694174 
! Gamma         56.7930923142617 1798.47813161423 56.4303702692725 1798.01638876084 
! Port Impedance         50               0                50               0                
38                             0.0815192034003764 -49.9269493409821 0.899000665461203 -158.987698835671 0.899000665461203 -158.987698835671 0.0808713183943504 -51.6991920204087 
! Gamma         58.1467918537561 1846.90895133539 57.7766288803291 1846.44146816678 
! Port Impedance         50               0                50               0                
39                             0.0673985933127756 -49.8553851179585 0.897858350034401 -163.221569561636 0.8978583500344  -163.221569561636 0.066557005216296 -52.01404291853  
! Gamma         59.4962092497708 1895.34164161683 59.1187092679345 1894.86857455343 
! Port Impedance         50               0                50               0                
40                             0.0535353685882761 -47.5409648363396 0.896550311008501 -167.463576117691 0.896550311008501 -167.463576117691 0.0524056440601102 -50.2129333270042 
! Gamma         60.8415787819127 1943.77663630451 60.4568425200861 1943.29813500409 
! Port Impedance         50               0                50               0                
41                             0.0405980529173969 -40.8893654587695 0.895060016019778 -171.712042827352 0.895060016019777 -171.712042827352 0.0390150029133357 -44.1460514855449 
! Gamma         62.1831291580636 1992.2143387823  61.7912541058924 1991.73054679283 
! Port Impedance         50               0                50               0                
42                             0.0301825041260424 -25.6136164234218 0.893375330119816 -175.965150671472 0.893375330119816 -175.965150671472 0.0279142029609914 -28.8313179841131 
! Gamma         63.5210823782469 2040.6551249709  63.1221627779818 2040.16618032569 
! Port Impedance         50               0                50               0                
43                             0.0257907629188492 1.7415373274408  0.89148880027573 179.77901983262  0.891488800275728 179.77901983262  0.0229825485939417 1.39805448547188 
! Gamma         64.8556528886599 2089.09934609122 64.4497797623298 2088.60538186236 
! Port Impedance         50               0                50               0                
44                             0.0301679551576965 28.9686570945628 0.889397810971382 175.522443047422 0.889397810971382 175.522443047422 0.0277210159837156 31.7315733584447 
! Gamma         66.1870470081498 2137.54733119374 65.7743082086244 2137.04847599789 
! Port Impedance         50               0                50               0                
45                             0.0404205402318626 44.099042421442  0.887104603376215 171.267101289928 0.887104603376214 171.267101289928 0.0385731871450819 47.1626841909413 
! Gamma         67.5154625507126 2185.99938948629 67.0959428310423 2185.49576794661 
! Port Impedance         50               0                50               0                
46                             0.0530413175396345 50.691653248248  0.884616156894406 167.014938006953 0.884616156894407 167.014938006953 0.0516087027116647 53.2981867310632 
! Gamma         68.8410886258025 2234.45581243218 68.4148697303209 2233.94754560363 
! Port Impedance         50               0                50               0                
47                             0.0664505704789485 52.9997061112884 0.88194393841541 162.767812485821 0.88194393841541 162.767812485821 0.0652832238369718 55.1500108604171 
! Gamma         70.1641055721389 2282.91687567257 69.7312663339711 2282.40408142085 
! Port Impedance         50               0                50               0                
48                             0.0799903859948052 53.094989485753  0.87910353072472 158.527457470765 0.87910353072472 158.527457470765 0.0789987182271117 54.8830664119386 
! Gamma         71.4846850064164 2331.38284074932 71.045301457881  2330.86563409505 
! Port Impedance         50               0                50               0                
49                             0.0933361550754031 51.9487083438611 0.876114156815165 154.295440893604 0.876114156815166 154.295440893604 0.0924655331045106 53.4541910032788 
! Gamma         72.8029899538226 2379.85395667588 72.3571354405064 2379.3324501248  
! Port Impedance         50               0                50               0                
50                             0.106295552092225 50.0522832148416 0.872998120854776 150.07313273168  0.872998120854776 150.07313273168  0.10551054366319 51.3325570420888 
! Gamma         74.1191750493343 2428.33046134317 73.66692035077   2427.8047651599  
! Port Impedance         50               0                50               0                
51                             0.118737301690235 47.675738783867  0.8697801890785  145.861677751777 0.869780189078499 145.861677751777 0.118013402446531 48.7712334342232 
! Gamma         75.4333867890679 2476.81258277936 74.9748002379357 2476.28280525239 
! Port Impedance         50               0                50               0                
52                             0.130562947393912 44.978340292215  0.866486934783478 141.661974637618 0.866486934783478 141.661974637618 0.129882173782915 45.9177184533465 
! Gamma         76.745763818675  2525.30054029393 76.2809114241702 2524.76678796522 
! Port Impedance         50               0                50               0                
53                             0.14169438184346 42.0596663601207 0.863146071000107 137.474661726511 0.863146071000107 137.474661726511 0.141042810765485 42.8634696265069 
! Gamma         78.0564372507602 2573.79454548314 77.5853828170521 2573.25692336371 
! Port Impedance         50               0                50               0                
54                             0.152067769427879 38.9850230824234 0.859785792494252 133.300109331156 0.859785792494252 133.300109331156 0.151434094860508 39.6680837674335 
! Gamma         79.365530994414  2622.29480314694 78.8883362417412 2621.75341490716 
! Port Impedance         50               0                50               0                
55                             0.161630287041534 35.7989576946499 0.856434145830053 129.138418401197 0.856434145830053 129.138418401197 0.161004933471156 36.3719872962309 
! Gamma         80.6731621038696 2670.80151210475 80.1898867848006 2670.25646023783 
! Port Impedance         50               0                50               0                
56                             0.170338192146635 32.5328682178023 0.853118442656876 124.989425105324 0.853118442656875 124.989425105324 0.169712746809265 33.003515252359  
! Gamma         81.979441121733  2719.31486590093 81.4901431304526 2718.76625189165 
! Port Impedance         50               0                50               0                
57                             0.178155551440033 29.2095073622274 0.849864727527373 120.852710776778 0.849864727527373 120.852710776778 0.17752238634406 29.5830716474236 
! Gamma         83.2844724306183 2767.83505347193 82.7892079153498 2767.28297792036 
! Port Impedance         50               0                50               0                
58                             0.185053317051321 25.8457686387948 0.846697307746274 116.72761658419  0.846697307746274 116.72761658419  0.184405327605422 26.1256889222029 
! Gamma         84.588354590786  2816.36225970574 84.0871780571542 2815.80682245907 
! Port Impedance         50               0                50               0                
59                             0.191008599467116 22.4544809162243 0.843638349245235 112.613262246849 0.843638349245236 112.613262246849 0.190339016413005 22.6426691122456 
! Gamma         85.8911806809523 2864.89666595293 85.3841450950484 2864.33796622035 
! Port Impedance         50               0                50               0                
60                             0.196004064647747 19.0456097245316 0.840707539495485 108.508568109743 0.840707539495485 108.508568109743 0.195306312585539 19.1426781353085 
! Gamma         87.1930386252641 2913.43845048228 86.6801955039689 2912.87658692945 
! Port Impedance         50               0                50               0                
61                             0.200027421898413 15.6270931222473 0.837921816099496 104.412279918448 0.837921816099495 104.412279918448 0.199295007199686 15.632504267398  
! Gamma         88.4940115026456 2961.9877888809  87.9754110105227 2961.42285972332 
! Port Impedance         50               0                50               0                
62                             0.203070988712703 12.2054476135771 0.835295158015936 100.322995681698 0.835295158015936 100.322995681698 0.202297405171104 12.1176055976579 
! Gamma         89.7941778587683 3010.54485440764 89.2698688921321 3009.97695748997 
! Port Impedance         50               0                50               0                
63                             0.205131328555825 8.78622785956162 0.832838435332221 96.2391940674864 0.832838435332221 96.2391940674864 0.204309972370222 8.60252314780302 
! Gamma         91.0936119903226 3059.10981830685 90.5636422603925 3058.53905118046 
! Port Impedance         50               0                50               0                
64                             0.206208961944776 5.3743941700399  0.830559313069452 92.1592638420992 0.830559313069452 92.1592638420992 0.205333049464555 5.09120880015672 
! Gamma         92.3923842256422 3107.6828500846  91.8568003350252 3107.1093100696  
! Port Impedance         50               0                50               0                
65                             0.206308152811907 1.97462449833134 0.828462204574833 88.0815339240436 0.828462204574832 88.0815339240436 0.205370635348258 1.58730115356626 
! Gamma         93.6905611872725 3156.26411775852 93.1494087041222 3155.68790199783 
! Port Impedance         50               0                50               0                
66                             0.205436772342563 -1.40840224116488 0.826548270516476 84.0043036736714 0.826548270516476 84.0043036736714 0.204430242527759 -1.90562673074427 
! Gamma         94.9882060405353 3204.85378806535 94.4415295669513 3204.27499358891 
! Port Impedance         50               0                50               0                
67                             0.203606241927441 -4.769729842564  0.824815460250256 79.9258730864506 0.824815460250255 79.9258730864505 0.202522825669899 -5.38382858317737 
! Gamma         96.2853787312197 3253.45202665294 95.7332219680556 3252.87075041568 
! Port Impedance         50               0                50               0                
68                             0.200831556371764 -8.1038355477909 0.823258593202432 75.844572581904  0.823258593202432 75.844572581904  0.199662783395054 -8.84313784943341 
! Gamma         97.5821362072852 3302.05899825379 97.0245420151972 3301.47533718302 
! Port Impedance         50               0                50               0                
69                             0.197131388091726 -11.4043068529689 0.821869478856318 71.7587920910692 0.821869478856318 71.7587920910692 0.195868032261502 -12.2786941592047 
! Gamma         98.8785326284471 3350.67486682382 98.3155430854688 3350.0889178553  
! Port Impedance         50               0                50               0                
70                             0.192528273469212 -14.6634593247328 0.820637074767009 67.6670091480297 0.820637074767009 67.6670091480297 0.19116015134559 -15.6846217467808 
! Gamma         100.174619564806 3399.29979566943 99.6062760185838 3398.7116557854  
! Port Impedance         50               0                50               0                
71                             0.187048884115553 -17.8718626368659 0.819547682701188 63.5678156686747 0.819547682701188 63.5678156686747 0.185564596060452 -19.0536313915005 
! Gamma         101.470446179668 3447.93394756577 100.896789297067 3447.34371382284 
! Port Impedance         50               0                50               0                
72                             0.180724389423621 -21.0177290480607 0.818585183402051 59.4599430798941 0.81858518340205 59.4599430798941 0.179110981477928 -22.3765057094785 
! Gamma         102.766059403283 3496.57748485163 102.18712921931  3495.98525441522 
! Port Impedance         50               0                50               0                
73                             0.173590923822714 -24.0860975249264 0.817731310530497 55.3422854270061 0.817731310530497 55.3422854270061 0.171833439456124 -25.6414082163729 
! Gamma         104.061504096033 3545.230569515   103.477340055204 3544.63643967957 
! Port Impedance         50               0                50               0                
74                             0.165690184726657 -27.0577127952498 0.816965964004191 51.2139200539798 0.816965964004191 51.2139200539798 0.16377106180078 -28.8329244225166 
! Gamma         105.356823199128 3593.89336326885 104.767464196764 3593.29743148389 
! Port Impedance         50               0                50               0                
75                             0.157070209460601 -29.9074433116144 0.816267562172951 47.0741254234465 0.816267562172951 47.0741254234465 0.154968456694396 -31.9306891503574 
! Gamma         106.652057874374 3642.5660276154  106.05754229515  3641.96839150633 
! Port Impedance         50               0                50               0                
76                             0.147786418303068 -32.6019904992405 0.815613431091701 42.9223956224245 0.815613431091702 42.9223956224246 0.145476472889434 -34.9073611405499 
! Gamma         107.947247638616 3691.24872390484 107.34761339094  3690.64948129605 
! Port Impedance         50               0                50               0                
77                             0.137903079945665 -35.0964871726324 0.814980227539166 38.7584510986503 0.814980227539166 38.7584510986502 0.135353196793192 -37.7255410318143 
! Gamma         109.242430486183 3739.94161337681 108.6377150356   3739.34086230623 
! Port Impedance         50               0                50               0                
78                             0.127495480315857 -37.3293180183658 0.814344390532728 34.5822451920329 0.814344390532728 34.5822451920329 0.1246654228217  -40.3329269540452 
! Gamma         110.537643000214 3788.64485721666 109.927883400362 3788.04269595342 
! Port Impedance         50               0                50               0                
79                             0.116653306731835 -39.2140353602315 0.813682613958974 30.3939660725048 0.813682613958974 30.3939660725048 0.113490983727416 -42.6544303629477 
! Gamma         111.832920463026 3837.35861657695 111.218153383613 3836.75514364017 
! Port Impedance         50               0                50               0                
80                             0.105486198579064 -40.6264482066442 0.812972330766888 26.1940337722836 0.812972330766888 26.1940337722836 0.101922707636005 -44.5788536267996 
! Gamma         113.128296952267 3886.08305262268 112.508558705844 3885.47836679352 
! Port Impedance         50               0                50               0                
81                             0.0941332702118639 -41.3836404827429 0.812192197127691 21.9830921105806 0.812192197127691 21.9830921105806 0.090075583647096 -45.9354619496479 
! Gamma         114.423805432721 3934.81832655007 113.799132000297 3934.21252688478 
! Port Impedance         50               0                50               0                
82                             0.0827800863694146 -41.2097903026995 0.811322563256963 17.7619954450192 0.811322563256962 17.7619954450192 0.0781005605572024 -46.4511164480396 
! Gamma         115.719477843642 3983.56459961873 115.08990489579  3982.95778546088 
! Port Impedance         50               0                50               0                
83                             0.0716897266225246 -39.6825846606509 0.810345916422796 13.5317903482462 0.810345916422796 13.5317903482462 0.0662127678052522 -45.6693747526779 
! Gamma         117.015345175628 4032.32203316194 116.380908095873 4031.71430416159 
! Port Impedance         50               0                50               0                