! Touchstone file exported from HFSS 2024.2.0
!        File:           C:/Users/vaintrug/Documents/Ansoft_Workspace/Comparaison_Calculs_HFSS/1_VarPort.aedt
!        Generated:      03:22:17 PM Jan 21, 2025
!        Design:         1_NoDeembed_FacePortFree
!        Project:        1_VarPort
!        Setup:          Setup1
!        Solution:       Sweep
!
! Variables:
!        $Lenght = 1500um
!        $PortSize = 350um
!        Gap = 30um
!        Th = 2um
!        X_centralStrip = 20um
!        X_masse = 200um
!        Y_Sub = 1.5mm
!        Z_Box = 400um
!        Z_Sub = 200um
!
# GHz S MA R 50.000000
! Terminal data exported
! Port[1] = 1
! Port[2] = 2
1                              0.0212268856181256 63.0128578668944 0.989062555718659 -4.43305297831099 0.989062555718659 -4.43305297831099 0.0212271324598168 63.0203631071442 
! Gamma         5.93806661422202 49.8216072174574 5.76711544263679 49.6063491198599 
! Port Impedance         50               0                50               0                
2                              0.0380192497224048 69.7812390756292 0.986512820742265 -8.76367363946108 0.986512820742265 -8.76367363946108 0.038017749520626 69.7978477915605 
! Gamma         7.66807858031064 98.278756324485  7.40284487992674 98.0143808173626 
! Port Impedance         50               0                50               0                
3                              0.0551586893932049 70.0447780680743 0.983995179074851 -13.0982169888215 0.98399517907485 -13.0982169888215 0.0551554173416886 70.0730648713918 
! Gamma         9.05459106845048 146.805265585809 8.75036175953077 146.496819316419 
! Port Impedance         50               0                50               0                
4                              0.0721525179951188 68.1492143748562 0.981210293376251 -17.4305563172782 0.981210293376252 -17.4305563172782 0.0721482868241091 68.1891308527394 
! Gamma         10.3671048813419 195.402953855856 10.0405327165549 195.041081066976 
! Port Impedance         50               0                50               0                
5                              0.0887366959756763 65.3094847674619 0.978116218850382 -21.7549178291811 0.978116218850382 -21.7549178291811 0.0887322107616071 65.3606845170509 
! Gamma         11.6750569423634 244.032223378226 11.3306770794329 243.61094926742  
! Port Impedance         50               0                50               0                
6                              0.104741370695286 61.9888332200946 0.974729209341001 -26.0672601232426 0.974729209341001 -26.0672601232426 0.104737160204701 62.0509865946432 
! Gamma         12.998284730118  292.67002951055  12.6367880633891 292.186320581684 
! Port Impedance         50               0                50               0                
7                              0.120039452103261 58.4001633797074 0.971085630814631 -30.3646057998342 0.97108563081463 -30.3646057998343 0.120035880972185 58.4729675945885 
! Gamma         14.3424185639527 341.303392707744 13.9631931456023 340.756007859969 
! Port Impedance         50               0                50               0                
8                              0.134528835923996 54.6547076302327 0.967231085014615 -34.6447465445496 0.967231085014614 -34.6447465445497 0.13452611623096 54.7378669220373 
! Gamma         15.7081038819198 389.924566389432 15.3101241791927 389.313337921042 
! Port Impedance         50               0                50               0                
9                              0.148125406170434 50.8161644509741 0.96321574926392 -38.9061194135414 0.96321574926392 -38.9061194135414 0.148123604396787 50.9093730584324 
! Gamma         17.0939504878709 438.528735630666 16.6761229410702 437.854153335995 
! Port Impedance         50               0                50               0                
10                             0.160759724082159 46.9235207694299 0.959091611611985 -43.1477430571863 0.959091611611985 -43.1477430571863 0.160758765476402 47.0264504578867 
! Gamma         18.4976725664764 487.112905011975 18.0589791791677 486.375869136261 
! Port Impedance         50               0                50               0                
11                             0.172375053170966 43.0017999062022 0.954910491796646 -47.3691717726088 0.954910491796646 -47.3691717726088 0.172374724907685 43.114090433944  
! Gamma         19.9166093667145 535.675314441795 19.4561680142068 534.876981243602 
! Port Impedance         50               0                50               0                
12                             0.18292588279021 39.0675887647524 0.950722515740883 -51.570452193796 0.950722515740883 -51.570452193796 0.1829258365596  39.1888398715132 
! Gamma         21.3479979865869 584.215098460406 20.8650849873596 583.356778464151 
! Port Impedance         50               0                50               0                
13                             0.192376647255116 35.1320960178145 0.946574926613007 -55.7520778312965 0.946574926613008 -55.7520778312965 0.192376401504975 35.2618600252397 
! Gamma         22.7891305693827 632.732064859858 22.2831845758631 631.815152732325 
! Port Impedance         50               0                50               0                
14                             0.200700541491573 31.2029551715361 0.942511177319091 -59.9149407530272 0.942511177319091 -59.9149407530272 0.200699483342344 31.3407295667366 
! Gamma         24.237449212613  681.226536383483 23.7080651860822 680.252461102574 
! Port Impedance         50               0                50               0                
15                             0.207878413604698 27.2853502791054 0.938570265642137 -64.0602812122019 0.938570265642136 -64.0602812122019 0.207875800370235 27.4305698039087 
! Gamma         25.6906028703365 729.699229169634 25.1375207589221 728.669417915499 
! Port Impedance         50               0                50               0                
16                             0.213897743764911 23.3827572545544 0.934786276635989 -68.1896364290404 0.934786276635989 -68.1896364290403 0.213892703980908 23.5347851218194 
! Gamma         27.1464788951282 778.151155080046 26.5695694436816 777.067007162975 
! Port Impedance         50               0                50               0                
17                             0.218751726236299 19.4974577065703 0.931188097861797 -72.304789667008 0.931188097861797 -72.304789667008 0.218743260086436 19.6555755472689 
! Gamma         28.6032167062662 826.583541492887 28.0024660571087 825.446409660881 
! Port Impedance         50               0                50               0                
18                             0.222438470125859 15.6309136401765 0.927799274746731 -76.4077204876444 0.927799274746731 -76.4077204876444 0.222425449147621 15.7943097771765 
! Gamma         30.0592087580201 874.997765038483 29.4347027809816 873.808942497929 
! Port Impedance         50               0                50               0                
19                             0.224960329785962 11.7840553583161 0.924637976448841 -80.5005567783076 0.92463797644884 -80.5005567783076 0.224941495712956 11.9518108834467 
! Gamma         31.513092484844  923.395296959617 30.8650015280433 922.156008913488 
! Port Impedance         50               0                50               0                
20                             0.226323370694881 7.95751526597934 0.921717046791894 -84.5855288869033 0.921717046791894 -84.5855288869033 0.226297333265589 8.12858734523703 
! Gamma         32.9637360976546 971.77765869145  32.2923005948277 970.489057340035 
! Port Impedance         50               0                50               0                
21                             0.22653697187332 4.15182956532736 0.919044119675586 -88.6649259963833 0.919044119675586 -88.6649259963833 0.226502205359615 4.32503116231394 
! Gamma         34.4102204859632 1020.14638628135 33.7157376847962 1018.80954856217 
! Port Impedance         50               0                50               0                
22                             0.225613562261035 0.367623973709201 0.916621783304532 -92.7410547224397 0.916621783304532 -92.7410547224397 0.225568400376821 0.541598998137864 
! Gamma         35.8518189312563 1068.50300252855 35.1346308782118 1067.11892994899 
! Port Impedance         50               0                50               0                
23                             0.223568485395924 -3.39420311064584 0.914447782397758 -96.8161998567867 0.914447782397758 -96.8161998567867 0.223511114088669 -3.22101057878925 
! Gamma         37.2879759506897 1116.84899570601 36.5484588320481 1115.41861576651 
! Port Impedance         50               0                50               0                
24                             0.220419984785357 -7.13228712392186 0.912515251830754 -100.892587140107 0.912515251830754 -100.892587140107 0.220348432194929 -6.96167132536257 
! Gamma         38.7182862580039 1165.18580391862 37.9568410379944 1163.70997271921 
! Port Impedance         50               0                50               0                
25                             0.216189300802438 -10.8445792613179 0.910812978906876 -104.972347981143 0.910812978906877 -104.972347981142 0.216101423339468 -10.6786214209163 
! Gamma         40.142474508503  1213.51480419494 39.3595188668954 1211.99430980665 
! Port Impedance         50               0                50               0                
26                             0.21090086911564 -14.5280859811945 0.909325694467894 -109.057486091981 0.909325694467893 -109.057486091981 0.210794332144871 -14.3692165166802 
! Gamma         41.5603763108447 1261.83730532374 40.7563377629626 1260.27287176647 
! Port Impedance         50               0                50               0                
27                             0.204582610559138 -18.1785416867725 0.908034395295315 -113.149846083952 0.908034395295316 -113.149846083952 0.204454861457405 -18.0296207137006 
! Gamma         42.9719207647816 1310.15454384213 42.1472308921583 1308.54683540347 
! Port Impedance         50               0                50               0                
28                             0.19726630296717 -21.7899791125367 0.906916701759218 -117.251084186273 0.906916701759218 -117.251084186273 0.197114533273925 -21.654401994603 
! Gamma         44.3771146923603 1358.46768249706 43.5322043681714 1356.81730811245 
! Port Impedance         50               0                50               0                
29                             0.188988028214141 -25.3541433147109 0.905947255247112 -121.362641333409 0.905947255247112 -121.362641333409 0.188809119952322 -25.2359810386165 
! Gamma         45.7760285816427 1406.77781050815 44.9113240793873 1405.08532827066 
! Port Impedance         50               0                50               0                
30                             0.179788692995416 -28.8596636766413 0.905098159727264 -125.485718993668 0.905098159727264 -125.485718993668 0.179579141671908 -28.7638524741822 
! Gamma         47.168784227441  1455.08594531579 46.2847041165932 1453.35186685323 
! Port Impedance         50               0                50               0                
31                             0.169714632888592 -32.2908437177343 0.90433947072268 -129.621258201349 0.904339470722679 -129.621258201349 0.169470435519852 -32.2234455593169 
! Gamma         48.5555439779587 1503.39303531884 47.6524966879117 1501.61783002764 
! Port Impedance         50               0                50               0                
32                             0.158818330640234 -35.625830806514 0.903639733056684 -133.769922335715 0.903639733056684 -133.769922335715 0.158534820200879 -35.5943978194751 
! Gamma         49.9365014821273 1551.699963331   49.0148834556749 1549.88406242493 
! Port Impedance         50               0                50               0                
33                             0.147159321067669 -38.8337466185474 0.902966566090179 -137.932084245133 0.90296656609018 -137.932084245133 0.146830916758118 -38.8478407738501 
! Gamma         51.3118738000394 1600.00755049645 50.3720681417773 1598.15135081512 
! Port Impedance         50               0                50               0                
34                             0.134805437756367 -41.8700080783448 0.902287291851058 -142.10781833392 0.902287291851058 -142.10781833392 0.134425259003516 -41.9419567167553 
! Gamma         52.6818947439972 1648.31656046286 51.7242702827427 1646.42042802844 
! Port Impedance         50               0                50               0                
35                             0.121834728378868 -44.6683537014775 0.901569597687878 -146.296898199131 0.901569597687878 -146.296898199131 0.12139398036585 -44.8143670715746 
! Gamma         54.0468093078222 1696.6277036608  53.0717200145672 1694.69197695915 
! Port Impedance         50               0                50               0                
36                             0.108338741913365 -47.1265502269978 0.900782221119543 -150.498800329449 0.900782221119544 -150.498800329449 0.107825702320826 -47.3683902444356 
! Gamma         55.4068690645363 1744.9416415598  54.4146537438967 1742.96663458778 
! Port Impedance         50               0                50               0                
37                             0.0944287777931283 -49.0792153804552 0.899895640697427 -154.712714253077 0.899895640697427 -154.712714253077 0.0938270559149308 -49.4466507879461 
! Gamma         56.7623283840852 1793.25899084344 55.7533106165271 1791.24499587303 
! Port Impedance         50               0                50               0                
38                             0.0802489624180821 -50.2424594124528 0.898882753326277 -158.937559340443 0.898882753326277 -158.937559340443 0.0795343708330475 -50.776535400191 
! Gamma         58.113441385449  1841.58032741958 57.0879296436958 1839.52761753119 
! Port Impedance         50               0                50               0                
39                             0.0660064716498302 -50.091905702701 0.897719515969485 -163.17200823705 0.897719515969485 -163.17200823705 0.0651411807007146 -50.8472590494606 
! Gamma         59.460459495154  1889.90619023072 58.4187474144569 1887.81502158689 
! Port Impedance         50               0                50               0                
40                             0.0520496179293031 -47.5717304683754 0.896385528374704 -167.414516658193 0.896385528374704 -167.414516658193 0.0509713287795709 -48.6051159815888 
! Gamma         60.8036295358323 1938.23708484853 59.7459962995468 1936.10769877503 
! Port Impedance         50               0                50               0                
41                             0.03909439514225 -40.3809968175972 0.894864533611342 -171.66335898743 0.894864533611342 -171.66335898743 0.0377018933995313 -41.6473801687387 
! Gamma         62.1431922550243 1986.57348681321 61.0699030669567 1984.40611164766 
! Port Impedance         50               0                50               0                
42                             0.0288995111219014 -23.7818232992768 0.893144815039401 -175.916668854307 0.893144815039401 -175.916668854307 0.0270953750593333 -24.5579463966606 
! Gamma         63.4793812244    2034.91584475932 62.3906878425353 2032.71069751103 
! Port Impedance         50               0                50               0                
43                             0.0252754839973697 5.21052544209531 0.891219471769353 179.827516385403 0.891219471769353 179.827516385403 0.0233556409679263 6.97244144722196 
! Gamma         64.8124220482276 2083.26458326133 63.7085633665651 2081.02187111988 
! Port Impedance         50               0                50               0                
44                             0.0306095837605643 31.9701929515001 0.889086559590928 175.571208552855 0.889086559590928 175.571208552855 0.0292046235083924 35.4084800325187 
! Gamma         66.1425318306257 2131.62010548844 65.023734484469  2129.34002713319 
! Port Impedance         50               0                50               0                
45                             0.0414182905418596 45.956253275521  0.886749090382276 171.31642036235  0.886749090382276 171.31642036235  0.0405255236758317 49.2184870521393 
! Gamma         67.4699188424451 2179.98279561071 66.3363978325824 2177.66554239772 
! Port Impedance         50               0                50               0                
46                             0.0543079682972217 51.8229854857162 0.884214889702171 167.065117452367 0.88421488970217 167.065117452367 0.053744501372046 54.6394823037097 
! Gamma         68.7947823723173 2228.35302098634 67.6467416935681 2225.99877799051 
! Port Impedance         50               0                50               0                
47                             0.0678472573659168 53.7114530091836 0.88149631905186 162.819172218641 0.881496319051861 162.819172218641 0.0674969154549244 56.1733431290143 
! Gamma         70.1173127008823 2276.73113416775 68.9549459618864 2274.34008111808 
! Port Impedance         50               0                50               0                
48                             0.0814413008372783 53.5482115252281 0.87860987560662 158.580320847028 0.87860987560662 158.580320847028 0.0812385271483114 55.7537772794805 
! Gamma         71.4376911933656 2325.11747471968 70.2611822339983 2322.68978679978 
! Port Impedance         50               0                50               0                
49                             0.0947914473169854 52.2299000248326 0.875575687549776 154.350124777067 0.875575687549776 154.350124777067 0.0946972182230748 54.2489059937888 
! Gamma         72.7560904736287 2373.51237085608 71.5656139598839 2371.0482194445  
! Port Impedance         50               0                50               0                
50                             0.107717155643845 50.2110234350601 0.872416927095652 150.129937603951 0.872416927095651 150.129937603951 0.107706469854681 52.0908499885861 
! Gamma         74.0726746655999 2421.91614093244 72.8683966698253 2419.41569422226 
! Port Impedance         50               0                50               0                
51                             0.120093124748455 47.7422639222538 0.869159165633234 145.920878165663 0.869159165633233 145.920878165663 0.120148814082466 49.5155410705552 
! Gamma         75.3875996834306 2470.32909478785 74.1696782416966 2467.79251834883 
! Port Impedance         50               0                50               0                
52                             0.1318242839511  44.97204677429   0.865829696094966 141.723810279729 0.865829696094966 141.723810279729 0.131933807687499 46.6618224123828 
! Gamma         76.7010135589658 2518.75153496339 75.4695992021784 2516.17899223123 
! Port Impedance         50               0                50               0                
53                             0.142834679476319 41.9934833874141 0.862456846758696 137.539329319448 0.862456846758696 137.539329319448 0.142988366200044 43.6164562881731 
! Gamma         78.0130567935186 2567.18375779758 76.7682930580779 2564.57541049469 
! Port Impedance         50               0                50               0                
54                             0.15306201417586 38.8677995492376 0.85906930847719 133.367755559598 0.859069308477191 133.367755559598 0.153252045622493 40.436343353066  
! Gamma         79.3238627279131 2615.62605442164 78.0658866369664 2612.98206292472 
! Port Impedance         50               0                50               0                
55                             0.162454685812809 35.6368354831602 0.85569549412532 129.209134002301 0.85569549412532 129.209134002301 0.162674482850963 37.1602928375297 
! Gamma         80.6335579181039 2664.07871164645 79.3625004386213 2661.39923531812 
! Port Impedance         50               0                50               0                
56                             0.170970004095838 32.3301086788693 0.852362945247387 125.063240214569 0.852362945247387 125.063240214569 0.171213841890398 33.8156404271616 
! Gamma         81.9422625184926 2712.54201278016 80.6582489941853 2709.8272102469  
! Port Impedance         50               0                50               0                
57                             0.178572995462619 28.9690079776978 0.849097796846258 120.929591584559 0.849097796846258 120.929591584559 0.178835755106918 30.4221648706567 
! Gamma         83.2500906610399 2761.01623836528 81.953241214566  2758.26626775576 
! Port Impedance         50               0                50               0                
58                             0.185235518562546 25.5693964248244 0.845924307329737 116.807463319891 0.845924307329737 116.807463319891 0.18551252312096 26.9945132192099 
! Gamma         84.5571508280895 2809.50166683574 83.2475807489019 2806.71668599697 
! Port Impedance         50               0                50               0                
59                             0.190935557860787 22.143293245111  0.84286445706961 112.695908480836 0.84286445706961 112.695908480836 0.191222462357735 23.543766100236  
! Gamma         85.8635462228545 2857.9985751225  84.541366320055  2855.1787418036  
! Port Impedance         50               0                50               0                
60                             0.195656632517817 18.7000036175587 0.839937616040871 108.593781340725 0.83993761604087 108.593781340725 0.1959493493955  20.0784888543153 
! Gamma         87.1693751242808 2906.50723921337 85.8346920655645 2903.65271121407 
! Port Impedance         50               0                50               0                
61                             0.199387292350862 15.2469077148816 0.837160278695422 104.499763401301 0.837160278695422 104.499763401301 0.199681940824055 16.6054662823406 
! Gamma         88.4747312333686 2955.02793464674 87.1276478571579 2952.13886996142 
! Port Impedance         50               0                50               0                
62                             0.202120689987743 11.7900351358033 0.834545862613897 100.412391439956 0.834545862613896 100.412391439956 0.202413561835152 13.1302386922817 
! Gamma         89.7797040080508 3003.56093698313 88.4203196197097 3000.63749390306 
! Port Impedance         50               0                50               0                
63                             0.203854226642378 8.33450297177763 0.832104566552391 96.3300870324823 0.832104566552392 96.3300870324823 0.204141763491586 9.65751216033221 
! Gamma         91.0843789823362 3052.10652221709 89.7127896244112 3049.14885944723 
! Port Impedance         50               0                50               0                
64                             0.20458927247837 4.8848682199152  0.829843283191591 92.2511870568914 0.82984328319159 92.2511870568914 0.204868051206696 6.19149027235943 
! Gamma         92.3888380740292 3100.66496718579 91.0051367857654 3097.67324391613 
! Port Impedance         50               0                50               0                
65                             0.204330963598536 1.44542931708975 0.827765562080994 88.1739747496046 0.827765562080994 88.1739747496046 0.204597687463526 2.73615983015378 
! Gamma         93.6931598794654 3149.23654992405 92.2974369317521 3146.21092590624 
! Port Impedance         50               0                50               0                
66                             0.203088077453468 -1.97949741643228 0.825871618851253 84.0967109365062 0.825871618851254 84.0967109365062 0.203339571170923 -0.704445266191582 
! Gamma         94.9974199524451 3197.82155000751 93.5897630730014 3194.7621856219  
! Port Impedance         50               0                50               0                
67                             0.200872987669548 -5.38530510080779 0.824158387600685 80.0176650999197 0.824158387600685 80.0176650999197 0.201106195018162 -4.12598175889498 
! Gamma         96.3016910718239 3246.42024887835 94.8821856524747 3243.32730517946 
! Port Impedance         50               0                50               0                
68                             0.197701698415676 -8.76680718405222 0.822619614327897 75.9351459689601 0.822619614327897 75.9351459689601 0.197913681111722 -7.52351703005717 
! Gamma         97.606043497172  3295.0329301489  96.1747727850133 3291.90656891387 
! Port Impedance         50               0                50               0                
69                             0.19359395787641 -12.1179098165317 0.82124599024705 71.8475313256787 0.82124599024705 71.8475313256786 0.193781894477975 -10.8912099684215 
! Gamma         98.9105452080259 3343.65987988311 97.4675904875745 3340.50026365768 
! Port Impedance         50               0                50               0                
70                             0.188573450549272 -15.431218466718 0.82002532467598 67.7532967160965 0.820025324675979 67.7532967160965 0.18873463401126 -14.2219260491018 
! Gamma         100.215262137428 3392.30138689213 98.7607028984806 3389.1086790084  
! Port Impedance         50               0                50               0                
71                             0.182668069486601 -18.6975419727285 0.818942757829614 63.6510427295288 0.818942757829615 63.6510427295288 0.182799901693776 -17.5067504104563 
! Gamma         101.52025838894  3440.95774297634 100.054172482973 3437.73210760179 
! Port Impedance         50               0                50               0                
72                             0.175910273173437 -21.9052411513649 0.817981014175853 59.5395204841281 0.817981014175854 59.539520484128  0.176010254270669 -20.7343466531625 
! Gamma         102.825596445089 3489.62924321653 101.348060232522 3486.37084536551 
! Port Impedance         50               0                50               0                
73                             0.16833753891916 -25.039342585481 0.817120696956214 55.4176549171518 0.817120696956214 55.4176549171518 0.168403248461494 -23.8900826545061 
! Gamma         104.131337366759 3538.31618620776 102.642425853762 3535.02519177028 
! Port Impedance         50               0                50               0                
74                             0.159992937991734 -28.0802942961696 0.816340623987824 51.2845654440051 0.816340623987823 51.284565444005  0.160022003710593 -26.9548008177286 
! Gamma         105.437540980924 3587.0188743218  103.937327947726 3583.6954500854  
! Port Impedance         50               0                50               0                
75                             0.150925882081153 -31.0021659619332 0.815618203901701 47.1395835207795 0.815618203901702 47.1395835207795 0.150915930159661 -29.9030360390419 
! Gamma         106.744266062665 3635.73761395479 105.232824184453 3632.38192761881 
! Port Impedance         50               0                50               0                
76                             0.141193134727594 -33.7699685553627 0.814929850578366 42.9822666276934 0.814929850578366 42.9822666276934 0.141141712517347 -32.7003563395567 
! Gamma         108.051570506091 3684.47271577842 106.528971465813 3681.08493598121 
! Port Impedance         50               0                50               0                
77                             0.130860262724475 -36.3355417878715 0.814251431722684 38.8124081941903 0.814251431722684 38.8124081941903 0.130764720170232 -35.2992727072724 
! Gamma         109.359511490113 3733.22449499143 107.825826084704 3729.80479131624 
! Port Impedance         50               0                50               0                
78                             0.120003856512628 -38.631044907073 0.813558745401543 34.6300430143592 0.813558745401543 34.6300430143592 0.119861165255071 -37.6327461003763 
! Gamma         110.668145637468 3781.99327157429 109.12344387834  3778.5418145747  
! Port Impedance         50               0                50               0                
79                             0.108715150850786 -40.5583132879988 0.812828016064971 30.4354477605753 0.81282801606497 30.4354477605754 0.108521628854059 -39.6035298955461 
! Gamma         111.977529165383 3830.77937054115 110.421880373047 3827.29633175553 
! Port Impedance         50               0                50               0                
80                             0.0971062945718631 -41.9708655627721 0.812036399271911 26.2291362934576 0.812036399271912 26.2291362934576 0.0968571890372219 -41.0660606546587 
! Gamma         113.287718033173 3879.58312221185 111.721190928252 3876.06867417764 
! Port Impedance         50               0                50               0                
81                             0.0853218331163311 -42.6425193214065 0.811162482246285 22.0118495934041 0.811162482246285 22.0118495934041 0.0850107022468184 -41.7946435330197 
! Gamma         114.598768085251 3928.40486246686 113.021430871925 3924.85917874683 
! Port Impedance         50               0                50               0                
82                             0.0735608609691815 -42.2114775429819 0.810186765725165 17.7845402909056 0.810186765725165 17.7845402909056 0.0731787266383249 -41.4261650055996 
! Gamma         115.910735186532 3977.24493304111 114.322655637052 3973.66818822668 
! Port Impedance         50               0                50               0                
83                             0.0621216679214235 -40.0820144177294 0.809092111535445 13.5483519570649 0.809092111535445 13.5483519570649 0.0616561741860246 -39.3575995247689 
! Gamma         117.223675359397 4026.10368178476 115.624920888556 4022.49605153133 
! Port Impedance         50               0                50               0                