! Touchstone file exported from HFSS 2024.2.0
!        File:           C:/Users/vaintrug/Documents/Ansoft_Workspace/Comparaison_Calculs_HFSS/1_VarPort.aedt
!        Generated:      03:22:16 PM Jan 21, 2025
!        Design:         1_NoDeembed_FacePortFree
!        Project:        1_VarPort
!        Setup:          Setup1
!        Solution:       Sweep
!
! Variables:
!        $Lenght = 1500um
!        $PortSize = 160um
!        Gap = 30um
!        Th = 2um
!        X_centralStrip = 20um
!        X_masse = 200um
!        Y_Sub = 1.5mm
!        Z_Box = 400um
!        Z_Sub = 200um
!
# GHz S MA R 50.000000
! Terminal data exported
! Port[1] = 1
! Port[2] = 2
1                              0.0208920571141964 62.6866774152785 0.989072967824819 -4.43606654807474 0.989072967824819 -4.43606654807474 0.0208895897623667 62.7023856689074 
! Gamma         6.08667004676987 50.2671786720781 5.93169735105178 50.1346328643936 
! Port Impedance         50               0                50               0                
2                              0.0372989891495605 69.5286400836201 0.986495486081475 -8.76801879658319 0.986495486081475 -8.76801879658319 0.0372964466633975 69.5645317488025 
! Gamma         7.9978284351113  98.9939024181694 7.7075526566692  98.8658086278228 
! Port Impedance         50               0                50               0                
3                              0.0540396487893775 69.8658772033811 0.983986768631824 -13.1031756931018 0.983986768631823 -13.1031756931018 0.054038865670755 69.9193348487403 
! Gamma         9.48966494171139 147.717825444069 9.12427577209708 147.653466559052 
! Port Impedance         50               0                50               0                
4                              0.0706492506860074 68.019106558459  0.98123242534478 -17.4365478039742 0.98123242534478 -17.4365478039742 0.0706513413443029 68.0898444232107 
! Gamma         10.8636286158401 196.511864646868 10.458678542852  196.510211690009 
! Port Impedance         50               0                50               0                
5                              0.0868671499426684 65.2098116006483 0.978183531914146 -21.7625052990265 0.978183531914146 -21.7625052990265 0.0868731559454587 65.298119839852  
! Gamma         12.2153861701802 245.344802540978 11.7842398351354 245.398752669862 
! Port Impedance         50               0                50               0                
6                              0.102524973202644 61.9076820520853 0.974852748106481 -26.0770684767368 0.974852748106482 -26.0770684767368 0.102535955588607 62.0140470771661 
! Gamma         13.5756120411317 294.191761938416 13.1229207626139 294.296309138161 
! Port Impedance         50               0                50               0                
7                              0.117497081145367 58.3295118382059 0.971273792234566 -30.377310384192 0.971273792234566 -30.377310384192 0.117514130913474 58.4545435295017 
! Gamma         14.9544603278013 343.037365849145 14.4814457082005 343.189686515779 
! Port Impedance         50               0                50               0                
8                              0.131682756009928 54.588803885658  0.967489908886383 -34.6610627359903 0.967489908886382 -34.6610627359903 0.131706995648644 54.7332257419959 
! Gamma         16.3545707051216 391.872051066574 15.8610438534086 392.070845826258 
! Port Impedance         50               0                50               0                
9                              0.144999078881285 50.7506150291333 0.963549038495725 -38.9267886063889 0.963549038495725 -38.926788606389 0.145031665112383 50.9152697720016 
! Gamma         17.775448463961  440.689714440436 17.2606488635515 440.934694352959 
! Port Impedance         50               0                50               0                
10                             0.157377552282671 46.8547711862533 0.959501026833948 -43.1735165238671 0.959501026833948 -43.1735165238671 0.157419681126126 47.0406315175536 
! Gamma         19.2151840182835 489.486442620025 18.678158003623  489.777989080264 
! Port Impedance         50               0                50               0                
11                             0.168762107127249 42.926827983848  0.955395664901476 -47.4007939048087 0.955395664901476 -47.4007939048087 0.168815021144199 43.1350101805114 
! Gamma         20.671229901555  538.259808817402 20.1110120439674 538.598750535819 
! Port Impedance         50               0                50               0                
12                             0.179107638330916 38.9837154752692 0.951281193103424 -51.608644166655 0.951281193103424 -51.608644166655 0.179172635870392 39.2154955339008 
! Gamma         22.1407965993634 587.008454619681 21.5564993226143 587.395917485928 
! Port Impedance         50               0                50               0                
13                             0.188378753136762 35.0368629473981 0.947203140295411 -55.7975223706168 0.94720314029541 -55.7975223706168 0.188457199536227 35.2936955780171 
! Gamma         23.6210736029563 635.731818786996 23.0119306120103 636.169121492534 
! Port Impedance         50               0                50               0                
14                             0.196548624533293 31.0940403619744 0.943203438139313 -59.9682684213477 0.943203438139314 -59.9682684213477 0.196641965350444 31.3775813840154 
! Gamma         25.1093599034011 684.429946445522 24.4747448028327 684.918525591253 
! Port Impedance         50               0                50               0                
15                             0.20359792437094 27.1605060837038 0.939319770960169 -64.1220584480523 0.939319770960168 -64.1220584480523 0.203707700830362 27.4726389410797 
! Gamma         26.6031418787942 733.103345248945 25.9425727784143 733.644700386684 
! Port Impedance         50               0                50               0                
16                             0.209513841581934 23.2397602624311 0.935585126219795 -68.2603554468914 0.935585126219795 -68.2603554468914 0.20964170853401 23.5826275711417 
! Gamma         28.1001378478314 781.75287202002  27.4132738198439 782.34852462411  
! Port Impedance         50               0                50               0                
17                             0.214289199804174 19.334064319206  0.93202751231931 -72.3848602315691 0.93202751231931 -72.3848602315691 0.214436946606532 19.7101055704138 
! Gamma         29.5983200748876 830.379640724292 28.8849528031484 831.031103532098 
! Port Impedance         50               0                50               0                
18                             0.217921688040726 15.4448168053251 0.928669812398751 -76.497463532916 0.928669812398752 -76.497463532916 0.218091262925585 15.8568136918226 
! Gamma         31.0959210795985 878.984947120736 30.3559637921974 879.693701136265 
! Port Impedance         50               0                50               0                
19                             0.220413214339009 11.5728389897603 0.925529745781165 -80.6001998008763 0.925529745781164 -80.6001998008763 0.220606753007075 12.0239701758326 
! Gamma         32.591428975637  927.570206891484 31.8249039807232 928.337684436614 
! Port Impedance         50               0                50               0                
20                             0.221769387493301 7.71860328900047 0.922619912770075 -84.695203040338 0.922619912770076 -84.695203040338 0.221989246930556 8.21251104696236 
! Gamma         34.0835752816053 976.136905323076 33.2906010006332 976.964477795022 
! Port Impedance         50               0                50               0                
21                             0.221999127571266 3.88242651987382 0.919947903037209 -88.7846648067953 0.91994790303721 -88.7846648067953 0.222247926405428 4.42329833053304 
! Gamma         35.5713178579216 1024.68655680513 34.752095936086  1025.57552623942 
! Port Impedance         50               0                50               0                
22                             0.221114402308485 0.0646437293340398 0.917516452560268 -92.8707943609412 0.917516452560267 -92.8707943609412 0.22139506948587 0.657312989874988 
! Gamma         37.0538209727058 1073.22067294077 36.2086238418323 1074.17226654243 
! Port Impedance         50               0                50               0                
23                             0.219130083656215 -3.73422473225041 0.915323638554215 -96.9557809116037 0.915323638554214 -96.9557809116037 0.219445917847592 -3.08415338665128 
! Gamma         38.5304339435194 1121.74073789728 37.6595931170688 1122.75610502594 
! Port Impedance         50               0                50               0                
24                             0.216063916538433 -7.51330123575689 0.91336310592399 -101.041757851471 0.91336310592399 -101.041757851471 0.216418659573742 -6.79929456646615 
! Gamma         40.0006695678484 1170.24819001495 39.1045648267929 1171.32840101196 
! Port Impedance         50               0                50               0                
25                             0.21193659034639 -11.2711615913084 0.9116243222424  -105.130768908953 0.9116243222424  -105.130768908953 0.212334519259597 -10.485558154036 
! Gamma         41.4641830740353 1218.7444085699  40.5432326151288 1219.89045512239 
! Port Impedance         50               0                50               0                
26                             0.206771902525349 -15.0056133792141 0.910092861091812 -109.224736197118 0.910092861091812 -109.224736197118 0.207217946650077 -14.139367574612 
! Gamma         42.9207521844824 1267.23070482805 41.9754037667571 1268.4435014405  
! Port Impedance         50               0                50               0                
27                             0.20059700302436 -18.7134216565844 0.908750715697087 -113.325430207153 0.908750715697086 -113.325430207153 0.201096895339175 -17.755771563298 
! Gamma         44.3702586159031 1315.70831655457 43.4009817121969 1316.9887029257  
! Port Impedance         50               0                50               0                
28                             0.19344270830633 -22.3899528796143 0.907576646152734 -117.434441895603 0.907576646152735 -117.434441895603 0.194003184407972 -21.3279834344573 
! Gamma         45.812671239984  1364.17840532365 44.8199501463046 1365.52714931078 
! Port Impedance         50               0                50               0                
29                             0.185343874888261 -26.0286927412363 0.906546564089191 -121.553157103396 0.906546564089191 -121.553157103396 0.185972939413879 -24.8467529109778 
! Gamma         47.2480309579771 1412.64205593888 46.232358813759  1414.0598569823  
! Port Impedance         50               0                50               0                
30                             0.17633982534923 -29.6205678829594 0.90563395844688 -125.682733648235 0.90563395844688 -125.682733648235 0.177047115884306 -28.2994805007409 
! Gamma         48.676437303711  1461.10027752934 47.6383109717786 1462.58777036102 
! Port Impedance         50               0                50               0                
31                             0.166474826614742 -33.1529565295503 0.904810365011415 -129.824081516795 0.904810365011415 -129.824081516795 0.167272121717624 -31.6689280978397 
! Gamma         50.0980367150269 1509.55400583828 49.0379524323574 1511.11176432464 
! Port Impedance         50               0                50               0                
32                             0.155798633902491 -36.6081923949088 0.904045880634319 -133.977846657553 0.904045880634319 -133.977846657553 0.156700579681865 -34.9312798174013 
! Gamma         51.5130123632701 1558.00410639871 50.4314621024843 1559.63264747131 
! Port Impedance         50               0                50               0                
33                             0.144367140864458 -39.9612154428498 0.903309720620285 -138.144398921184 0.903309720620284 -138.144398921184 0.14539231866611 -38.053124504649 
! Gamma         52.9215754259657 1606.45137828276 51.8190438886975 1608.15116580802 
! Port Impedance         50               0                50               0                
34                             0.132243230904816 -43.1757285409659 0.902570814764446 -142.323824706077 0.902570814764445 -142.323824706077 0.133415775141806 -40.9865831244465 
! Gamma         54.3239576579425 1654.8965582184  53.2009198416574 1656.66800680409 
! Port Impedance         50               0                50               0                
35                             0.119498038605478 -46.197612243258 0.901798434113549 -146.515924844047 0.901798434113548 -146.515924844047 0.120850175567162 -43.6611094025192 
! Gamma         55.720405152767  1703.34032485348 54.5773243967983 1705.18380354586 
! Port Impedance         50               0                50               0                
36                             0.106213082352574 -48.9430202372956 0.90096283694879 -150.720218185748 0.90096283694879 -150.720218185748 0.107789277372542 -45.9690332669425 
! Gamma         57.1111731150267 1751.78330312155 55.9484995949604 1753.69913889402 
! Port Impedance         50               0                50               0                
37                             0.0924843313500127 -51.2754440480296 0.900035919033804 -154.935951226434 0.900035919033805 -154.935951226434 0.0943483797100355 -47.7386800493751 
! Gamma         58.496521549128  1800.22606851271 57.3146911430994 1802.2145496228  
! Port Impedance         50               0                50               0                
38                             0.0784308501090295 -52.9579877777936 0.898991850163798 -159.162113953619 0.898991850163797 -159.162113953619 0.0806786256909155 -48.68130307766  
! Gamma         59.8767117462481 1848.66915123198 58.6761452118012 1850.73053034912 
! Port Impedance         50               0                50               0                
39                             0.0642153198548247 -53.5442612925542 0.897807676801753 -163.397461883231 0.897807676801753 -163.397461883231 0.0669988363644485 -48.2794472724806 
! Gamma         61.2520034230245 1897.11304017786 60.0331058683956 1899.24753732451 
! Port Impedance         50               0                50               0                
40                             0.0500995361559359 -52.0992054938098 0.896463869456104 -167.640544026501 0.896463869456105 -167.640544026501 0.0536732346099493 -45.5396573669185 
! Gamma         62.6226524764876 1945.55818670827 61.3858130383817 1947.76599199673 
! Port Impedance         50               0                50               0                
41                             0.0366208240280639 -46.3982578375635 0.894944793620147 -171.889736272139 0.894944793620147 -171.889736272139 0.0414172861020224 -38.4615702613636 
! Gamma         63.9889091973666 1994.00500817715 62.7345009362729 1996.28628432621 
! Port Impedance         50               0                50               0                
42                             0.0252460379663548 -30.7210014713385 0.89323908473984 -176.143279424549 0.893239084739841 -176.143279424549 0.0318244522593045 -23.4238719488644 
! Gamma         65.351016926369  2042.45389120538 64.0793968618979 2044.80877589218 
! Port Impedance         50               0                50               0                
43                             0.020208702015333 2.92831472682846 0.891339910772818 179.600679097539 0.891339910772818 179.600679097539 0.0279728117012951 1.4821711306628  
! Gamma         66.7092110408479 2090.90519474301 65.4207203307452 2093.33380273661 
! Port Impedance         50               0                50               0                
44                             0.0255484431955242 35.8511847751263 0.889245110318767 175.344041071742 0.889245110318767 175.344041071742 0.0319823073777405 26.0806344700159 
! Gamma         68.0637182427078 2139.35925286419 66.7586824629624 2141.86167797906 
! Port Impedance         50               0                50               0                
45                             0.0368504064614394 50.8851663763992 0.886957199704878 171.088712114406 0.886957199704878 171.088712114406 0.0414905593852627 40.7084553741313 
! Gamma         69.4147560849545 2187.81637730901 68.0934855896037 2190.39269421044 
! Port Impedance         50               0                50               0                
46                             0.050011481893472 56.3342857282328 0.884483248435522 166.836556530085 0.884483248435521 166.836556530085 0.0534347836528534 47.5618323802014 
! Gamma         70.762532689307  2236.27685986127 69.4253230402876 2238.92712568756 
! Port Impedance         50               0                50               0                
47                             0.0636364250603402 57.6910824422698 0.881834628536866 162.589353741543 0.881834628536867 162.589353741543 0.0662687338923809 50.2015311116853 
! Gamma         72.1072466288259 2284.74097443811 70.7543790721368 2287.46523028488 
! Port Impedance         50               0                50               0                
48                             0.0772128004793418 57.0885960328296 0.879026649066812 158.348757599278 0.879026649066812 158.348757599278 0.0793019151686388 50.5697733517955 
! Gamma         73.449086935085  2333.20897904586 72.0808289133764 2336.00725129528 
! Port Impedance         50               0                50               0                
49                             0.0904922014274791 55.4289183916424 0.876078091966787 154.116259717049 0.876078091966787 154.116259717049 0.0921849871313228 49.6318908293864 
! Gamma         74.7882332160104 2381.68111750687 73.4048389010298 2384.55341904577 
! Port Impedance         50               0                50               0                
50                             0.103322870474173 53.1452722781511 0.873010669133258 149.893157792233 0.873010669133259 149.893157792233 0.104710981019911 47.8923210807389 
! Gamma         76.1248558376752 2430.15762104278 74.7265666842297 2433.10395235143 
! Port Impedance         50               0                50               0                
51                             0.11559660856366 50.4688192239715 0.869848422877789 145.680529625487 0.869848422877789 145.680529625487 0.116740131192255 45.6335834663829 
! Gamma         77.4591161866676 2478.63870967942 76.0461614835655 2481.65905981408 
! Port Impedance         50               0                50               0                
52                             0.127228968088457 47.5335070222219 0.866617092735847 141.479213307521 0.866617092735847 141.479213307521 0.128168943229347 43.0243177301034 
! Gamma         78.7911669602524 2527.1245935268  77.3637643902649 2530.21894099765 
! Port Impedance         50               0                50               0                
53                             0.138150819397175 44.4221529200149 0.863343470970318 137.289793783949 0.863343470970318 137.289793783949 0.138916205695775 40.1707816274316 
! Gamma         80.1211525052488 2575.61547391711 78.6795086923637 2578.78378748155 
! Port Impedance         50               0                50               0                
54                             0.14830432599514 41.1886811036665 0.8600547672758  133.112595773669 0.860054767275801 133.112595773669 0.148916073201094 37.1430107610025 
! Gamma         81.4492091660961 2624.11154442112 79.9935202186111 2627.35378378875 
! Port Impedance         50               0                50               0                
55                             0.15764079555956 37.8697081575743 0.856778000430508 128.947682808885 0.856778000430508 128.947682808885 0.158114334536148 33.9889263811705 
! Gamma         82.7754656565539 2672.61299176315 81.3059176949612 2675.9291082266  
! Port Impedance         50               0                50               0                
56                             0.166119385225208 34.4909759702015 0.85353943128612 124.794861994949 0.853539431286119 124.794861994949 0.166466209259603 30.7423595102465 
! Gamma         84.1000434350948 2721.11999663321 82.6168131031055 2724.50993363051 
! Port Impedance         50               0                50               0                
57                             0.173706217461411 31.0711227113495 0.850364047865813 120.653693965963 0.850364047865813 120.653693965963 0.173934918763522 27.4278345286603 
! Gamma         85.4230570809631 2769.63273441621 83.9263120410144 2773.0964280265  
! Port Impedance         50               0                50               0                
58                             0.180373705087266 27.6240013816802 0.847275109773361 116.523507429007 0.847275109773361 116.523507429007 0.180490671590292 24.0635433789317 
! Gamma         86.7446146668588 2818.15137582716 85.2345140785776 2821.68875522452 
! Port Impedance         50               0                50               0                
59                             0.186099993085487 24.1601691247663 0.844293755844993 112.403417649958 0.844293755844993 112.403417649958 0.186109885677987 20.6632675184346 
! Gamma         88.0648181291618 2866.67608749987 86.541513103582  2870.28707533536 
! Port Impedance         50               0                50               0                
60                             0.190868476653807 20.6878852142298 0.841438676173969 108.292348230025 0.841438676173969 108.292348230025 0.190774559529793 17.2376663983049 
! Gamma         89.3837636241057 2915.20703247912 87.8473976609656 2918.89154523776 
! Port Impedance         50               0                50               0                
61                             0.194667380080792 17.2138094682795 0.838725847439347 104.189055542174 0.838725847439348 104.189055542174 0.194471749351022 13.7951735671686 
! Gamma         90.7015418755197 2963.74437068489 89.1522512802429 2967.50231898802 
! Port Impedance         50               0                50               0                
62                             0.197489393282449 13.7435145929243 0.83616832888264 100.092155240942 0.83616832888264 100.092155240942 0.197193132384969 10.3426445364378 
! Gamma         92.0182385113317 3012.28825930769 90.4561527876037 3016.11954817862 
! Port Impedance         50               0                50               0                
63                             0.199331368299534 10.281882635052  0.833776115333413 96.000150310793  0.833776115333414 96.000150310793  0.198934648325789 6.88584582317691 
! Gamma         93.3339343793917 3060.83885315802 91.7591766090057 3064.74338226636 
! Port Impedance         50               0                50               0                
64                             0.20019408021513 6.83343114567591 0.831556043268648 91.9114601758951 0.831556043268648 91.9114601758951 0.199696216434868 3.42984299808173 
! Gamma         94.6487058611376 3109.39630497795 93.061393053639  3113.37396884442 
! Port Impedance         50               0                50               0                
65                             0.200082057126801 3.40260072386494 0.829511745985994 87.8244504489207 0.829511745985994 87.8244504489207 0.199481528232242 -0.0206728971522865 
! Gamma         95.9626251588182 3157.96076572039 94.3628685897248 3162.01145389797 
! Port Impedance         50               0                50               0                
66                             0.199003483297226 -0.00597197013636869 0.827643654402362 83.7374629433388 0.827643654402362 83.7374629433388 0.19829791629566 -3.46109174684838 
! Gamma         97.2757605737389 3206.53238478788 95.663666099534  3210.65598201746 
! Port Impedance         50               0                50               0                
67                             0.196970178775317 -3.38717499151698 0.82594904068415 79.6488456089884 0.82594904068415 79.6488456089884 0.196156299424359 -6.88660023557956 
! Gamma         98.5881767666234 3255.11131024677 96.9638451251446 3259.30769659268 
! Port Impedance         50               0                50               0                
68                             0.193997658082332 -6.73511509243719 0.824422102748517 75.5569820748238 0.824422102748517 75.5569820748238 0.19307120385017 -10.2918856113646 
! Gamma         99.8999350112493 3303.69768900367 98.26346209764   3307.96673997834 
! Port Impedance         50               0                50               0                
69                             0.190105270515437 -10.0427614717241 0.82305408850846 71.4603204862131 0.82305408850846 71.4603204862131 0.189060859835431 -13.6708042888085 
! Gamma         101.211093418959 3352.29166698419 99.562570553763  3356.6332536423  
! Port Impedance         50               0                50               0                
70                             0.185316425531013 -13.3015095677145 0.821833459487108 67.3574013234059 0.821833459487108 67.3574013234059 0.184147373179124 -17.0159872524095 
! Gamma         102.521707166849 3400.89338926052 100.861221339323 3405.3073782884  
! Port Impedance         50               0                50               0                
71                             0.179658909332491 -16.5006242237405 0.820746093985298 63.2468838656888 0.820746093985298 63.2468838656888 0.178356972506387 -20.3183446517372 
! Gamma         103.831828697973 3449.50300018201 102.159462799562 3453.98925396973 
! Port Impedance         50               0                50               0                
72                             0.17316530433375 -19.6265036651319 0.819775530252697 59.12757094001   0.819775530252697 59.12757094001   0.171720336629003 -23.5664155849224 
! Gamma         105.141507916251 3498.12064348424 103.457340957964 3502.67902018688 
! Port Impedance         50               0                50               0                
73                             0.165873533312027 -22.6616768442929 0.818903250051432 54.9984315614808 0.818903250051432 54.9984315614808 0.164273013016453 -26.7454817015407 
! Gamma         106.450792368941 3546.74646237859 104.754899682829 3551.37681596905 
! Port Impedance         50               0                50               0                
74                             0.157827568335924 -25.5833998024728 0.818109002506357 50.8586210403081 0.818109002506356 50.858621040308  0.156055951336833 -29.8363174141675 
! Gamma         107.759727413012 3595.38059963217 106.052180843095 3600.08277994569 
! Port Impedance         50               0                50               0                
75                             0.149078376504096 -28.3616393584459 0.817371167247778 46.7074981033773 0.817371167247778 46.7074981033773 0.147116199424249 -32.8133713078515 
! Gamma         109.068356375006 3644.02319764166 107.349224454371 3648.79705040771 
! Port Impedance         50               0                50               0                
76                             0.139685231252329 -30.9561027135912 0.816667154515917 42.5446385672701 0.816667154515917 42.5446385672701 0.137507852198856 -35.6420365243686 
! Gamma         110.37672069672  3692.67439849083 108.646068813862 3697.51976535814 
! Port Impedance         50               0                50               0                
77                             0.129717619896968 -33.3117499674113 0.81597383820089 38.3698451016141 0.81597383820089 38.3698451016141 0.127293424481181 -38.2744214850926 
! Gamma         111.684860074425 3741.3343439983  109.942750626306 3746.25106256533 
! Port Impedance         50               0                50               0                
78                             0.119258165581276 -35.3518426502069 0.815268015803045 34.1831526484833 0.815268015803045 34.1831526484833 0.116545973427721 -40.6425739302497 
! Gamma         112.992812584526 3790.00317577011 111.239305122168 3794.9910795906  
! Port Impedance         50               0                50               0                
79                             0.108407336079335 -36.9669135248114 0.814526887136083 29.9848291258419 0.814526887136083 29.9848291258419 0.105352606012077 -42.6472303105062 
! Gamma         114.300614803308 3838.68103522425 112.535766165847 3843.73995382659 
! Port Impedance         50               0                50               0                
80                             0.0972913982100587 -37.9969060925307 0.813728541445159 25.7753711220037 0.813728541445159 25.7753711220037 0.0938206555375113 -44.1384190788906 
! Gamma         115.608301917327 3887.36806363145 113.832166357068 3892.49782252401 
! Port Impedance         50               0                50               0                
81                             0.0860764265724334 -38.2019726535928 0.812852440644297 21.5554944146752 0.812852440644296 21.5554944146752 0.0820892376988346 -44.8807398958286 
! Gamma         116.915907825952 3936.06440213692 115.128537124361 3941.26482280956 
! Port Impedance         50               0                50               0                
82                             0.0749937884505679 -37.2156173190236 0.811879884818388 17.3261192894987 0.811879884818389 17.3261192894987 0.0703521773621035 -44.4892749180014 
! Gamma         118.223465234808 3984.77019178173 116.424908813468 3990.04109171311 
! Port Impedance         50               0                50               0                
83                             0.0643870407742208 -34.4768796551683 0.810794445171978 13.0883508074473 0.810794445171978 13.0883508074473 0.0589059933021717 -42.3109827286995 
! Gamma         119.531005747286 4033.48557352441 117.721310765919 4038.82676617331 
! Port Impedance         50               0                50               0                