! Touchstone file exported from HFSS 2024.2.0
!        File:           C:/Users/vaintrug/Documents/Ansoft_Workspace/Comparaison_Calculs_HFSS/1_VarPort.aedt
!        Generated:      03:22:19 PM Jan 21, 2025
!        Design:         1_NoDeembed_FacePortFree
!        Project:        1_VarPort
!        Setup:          Setup1
!        Solution:       Sweep
!
! Variables:
!        $Lenght = 2000um
!        $PortSize = 350um
!        Gap = 30um
!        Th = 2um
!        X_centralStrip = 20um
!        X_masse = 200um
!        Y_Sub = 2mm
!        Z_Box = 400um
!        Z_Sub = 200um
!
# GHz S MA R 50.000000
! Terminal data exported
! Port[1] = 1
! Port[2] = 2
1                              0.0273202446888414 60.9362709881258 0.985412028443338 -5.89528630508468 0.985412028443338 -5.89528630508468 0.0273269567655134 60.8903171423321 
! Gamma         6.15761897514119 50.4443723949366 5.9198626465306  49.8543242841637 
! Port Impedance         50               0                50               0                
2                              0.0485553899512723 66.6412419481676 0.981879395485698 -11.6545011710338 0.981879395485697 -11.6545011710338 0.048567345285661 66.5345033058394 
! Gamma         8.16116282809112 99.3022470291053 7.65723657546732 98.3758522175842 
! Port Impedance         50               0                50               0                
3                              0.0700317690237171 65.688704312083  0.978314949544378 -17.4147279396261 0.978314949544379 -17.4147279396261 0.0700438710048389 65.5219440235441 
! Gamma         9.71928860445952 148.101123235915 9.0583183575474  146.946950922557 
! Port Impedance         50               0                50               0                
4                              0.090992737212899 62.5218620859119 0.974352947006093 -23.166183444119 0.974352947006091 -23.166183444119 0.0909998188536158 62.295433756031  
! Gamma         11.1349769031976 196.962432794006 10.3811217803529 195.583359815904 
! Port Impedance         50               0                50               0                
5                              0.111000554743478 58.3947979475526 0.969973548924394 -28.8997996926381 0.969973548924395 -28.8997996926381 0.110997775415306 58.1083769751158 
! Gamma         12.5176297400498 245.864486401659 11.6964913561957 244.25002909917  
! Port Impedance         50               0                50               0                
6                              0.129758801470599 53.7885029377645 0.965239555269459 -34.6093616896734 0.965239555269459 -34.6093616896734 0.129741676391891 53.4412604963576 
! Gamma         13.9044884633538 294.782941667978 13.025530551015  292.925068053585 
! Port Impedance         50               0                50               0                
7                              0.147044429300289 48.9249821407242 0.960242842228745 -40.2907309419798 0.960242842228744 -40.2907309419798 0.147008816542585 48.5156769294328 
! Gamma         15.3085800639093 343.701651443697 14.3745848932014 341.595800607374 
! Port Impedance         50               0                50               0                
8                              0.162683836851563 43.9204156204647 0.955086604802754 -45.941485163454 0.955086604802754 -45.941485163454 0.162625910074354 43.4474230985615 
! Gamma         16.7338238498713 392.610314883393 15.7447069068981 390.254542723529 
! Port Impedance         50               0                50               0                
9                              0.176542500058128 38.8411154313036 0.949876145549963 -51.5607295105265 0.949876145549963 -51.5607295105265 0.176458710393158 38.3024214864519 
! Gamma         18.1802878819088 441.502297274863 17.1347483862996 438.896466576155 
! Port Impedance         50               0                50               0                
10                             0.188518899435485 33.7272322974413 0.944712722796991 -57.1489449304071 0.944712722796992 -57.1489449304071 0.188405927965722 33.1204030014351 
! Gamma         19.6462817491342 490.373336561016 18.5425727099533 487.518540631759 
! Port Impedance         50               0                50               0                
11                             0.198539882445175 28.6040334563633 0.939689086891746 -62.7078294977101 0.939689086891747 -62.7078294977101 0.198394584254356 27.9261646761989 
! Gamma         21.1293044616778 539.220795776054 19.9656130886736 536.118963554704 
! Port Impedance         50               0                50               0                
12                             0.20655661802731 23.487820459888  0.934886266966054 -68.2401233704504 0.934886266966055 -68.2401233704504 0.206375958131185 22.7354667680251 
! Gamma         22.6265249682657 588.043208578812 21.4011660190809 584.696830047638 
! Port Impedance         50               0                50               0                
13                             0.212540973789357 18.3893269612848 0.930371390852294 -73.7494203762184 0.930371390852293 -73.7494203762184 0.212321954285307 17.5584065350683 
! Gamma         24.1350480107151 636.839981283274 22.8465604317628 633.251911791225 
! Port Impedance         50               0                50               0                
14                             0.216482361698229 13.3158526828641 0.926196366743924 -79.23997266742  0.926196366743925 -79.23997266742  0.216221938130472 12.4015221462183 
! Gamma         25.652069483123  685.611182440419 24.2992598815301 681.784499827064 
! Port Impedance         50               0                50               0                
15                             0.218385142663658 8.2727382725513  0.922397266883817 -84.7164948252278 0.922397266883817 -84.7164948252278 0.218080125878958 7.26922841979617 
! Gamma         27.1749685892112 734.357384649253 25.7569240707569 730.295283072616 
! Port Impedance         50               0                50               0                
16                             0.218266663604805 3.26449972709243 0.918994267534085 -90.1839724484987 0.918994267534085 -90.1839724484987 0.21791360101696 2.16489862648665 
! Gamma         28.7013605501608 783.079540195389 27.2174435220999 778.785250531464 
! Port Impedance         50               0                50               0                
17                             0.216155964766415 -1.70418792862048 0.915992022571374 -95.6474786901414 0.915992022571374 -95.6474786901414 0.215750991686982 -2.90822410260578 
! Gamma         30.22912316374   831.778880704845 28.678955419363  827.255610867329 
! Port Impedance         50               0                50               0                
18                             0.212093158304773 -6.62752083366183 0.913380377767142 -101.112000979051 0.913380377767143 -101.112000979051 0.211631805109952 -7.94615866400633 
! Gamma         31.7564053987101 880.456835303716 30.1398461829277 875.707725802325 
! Port Impedance         50               0                50               0                
19                             0.20612944976626 -11.4974817997126 0.911135364225712 -106.582279341406 0.911135364225712 -106.582279341406 0.205606383133901 -12.9432475824428 
! Gamma         33.2816236490998 929.114963717605 31.5987445948086 924.143055224131 
! Port Impedance         50               0                50               0                
20                             0.198327754365393 -16.3024829721568 0.909220438456617 -112.062657496985 0.909220438456617 -112.062657496985 0.19773641850107 -17.8910147329969 
! Gamma         34.8034495593722 977.754902036118 33.054508548849  972.563112428228 
! Port Impedance         50               0                50               0                
21                             0.18876385546929 -21.0254994167135 0.9075879592993  -117.55694804577 0.9075879592993  -117.55694804577 0.188095958442415 -22.7766236186405 
! Gamma         36.3207924538705 1026.37831923438 34.5062076278341 1020.96942822064 
! Port Impedance         50               0                50               0                
22                             0.177528071557951 -25.6412958110395 0.906180906193313 -123.068313570859 0.906180906193313 -123.068313570859 0.17677282512325 -27.5806083593308 
! Gamma         37.8327785270307 1074.98688298318 35.9531033860343 1069.36352268808 
! Port Impedance         50               0                50               0                
23                             0.164727462950786 -30.1120215399105 0.904934847306529 -128.599166132345 0.904934847306529 -128.599166132345 0.16387041644084 -32.273276756373 
! Gamma         39.3387285325437 1123.58223330024 37.394628602624  1117.74688364873 
! Port Impedance         50               0                50               0                
24                             0.150488772635669 -34.3797660159018 0.903780159225203 -134.151088275884 0.903780159225203 -134.151088275884 0.149509950085062 -36.8086044201748 
! Gamma         40.8381351170156 1172.16596293083 38.8303665527705 1166.12095069056 
! Port Impedance         50               0                50               0                
25                             0.134962685471117 -38.3531550863959 0.902644482750719 -139.724779160519 0.902644482750719 -139.724779160519 0.133833465318604 -41.1131289045082 
! Gamma         42.3306407321867 1220.73960318862 40.2600309880247 1214.4871039175  
! Port Impedance         50               0                50               0                
26                             0.118330953973335 -41.8814856645194 0.901455373367547 -145.320029526983 0.901455373367547 -145.320029526983 0.117008539847444 -45.0641542008336 
! Gamma         43.8160166731708 1269.30461443599 41.6834472939272 1262.84665656177 
! Port Impedance         50               0                50               0                
27                             0.100820506807614 -44.7006481178354 0.90014307334187 -150.935728852123 0.900143073341868 -150.935728852124 0.0992374460878289 -48.4429655094884 
! Gamma         45.29414364468   1317.8623802309  43.1005351309969 1311.20085073289 
! Port Impedance         50               0                50               0                
28                             0.0827362868871013 -46.308813846917 0.898643299601257 -156.569907085538 0.898643299601258 -156.569907085538 0.0807789633013535 -50.8225882897645 
! Gamma         46.7649940533029 1366.41420442354 44.5112927329872 1359.55085558687 
! Port Impedance         50               0                50               0                
29                             0.0645505725421414 -45.6477384741104 0.896899913102071 -162.219811823738 0.896899913102071 -162.219811823738 0.0620112847583789 -51.257400589404 
! Gamma         48.2286161140761 1414.96131051948 45.9157828556841 1407.89776747749 
! Port Impedance         50               0                50               0                
30                             0.0471889830261537 -40.204546935852 0.89486731711159 -167.882019726594 0.89486731711159 -167.882019726594 0.0436572606271893 -47.260609925703 
! Gamma         49.6851197767315 1463.50484282525 47.3141204253136 1456.24261145488 
! Port Impedance         50               0                50               0                
31                             0.0330572736421504 -23.8485946149941 0.892512428830106 -173.55257864305 0.892512428830107 -173.55257864305 0.0278230790795298 -31.0697543727521 
! Gamma         51.1346643882085 1512.04586884017 48.7064617548078 1504.58634390879 
! Port Impedance         50               0                50               0                
32                             0.0282610828526588 9.04860536854688 0.889816084094465 -179.227174512108 0.889816084094466 -179.227174512108 0.0219914969322326 10.598446568704  
! Gamma         52.5774480219455 1560.585382582   50.0929952525531 1552.92985587509 
! Port Impedance         50               0                50               0                
33                             0.036653189244313 37.3964611271202 0.886773768740053 175.098684992711 0.886773768740053 175.098684992711 0.0321425748923002 44.2272133363708 
! Gamma         54.0136982875292 1609.12430857086 51.4739334899718 1601.27397684619 
! Port Impedance         50               0                50               0                
34                             0.0518780243186185 49.3842172766878 0.883395619311271 169.429479615114 0.883395619311271 169.429479615114 0.0488534494982625 55.0595719411765 
! Gamma         55.4436645486564 1657.66350612854 52.8495064807004 1649.61947886512 
! Port Impedance         50               0                50               0                
35                             0.0690945963616902 52.9466013206411 0.879705693934305 163.769488697303 0.879705693934306 163.769488697303 0.066900390179793 57.2292078218767 
! Gamma         56.8676113446446 1706.20377392839 54.2199560627718 1697.96708072701 
! Port Impedance         50               0                50               0                
36                             0.0865726642041194 52.7977652305627 0.875740573187785 158.122616369307 0.875740573187784 158.122616369307 0.0848709161665862 56.0848127008883 
! Gamma         58.2858129100306 1754.74585456468 55.5855312301556 1746.31745218377 
! Port Impedance         50               0                50               0                
37                             0.103602424295661 50.8303149462612 0.871547402335177 152.492238558349 0.871547402335177 152.492238558348 0.102217930354987 53.4130823602567 
! Gamma         59.698548646782  1803.29043909277 56.9464843017632 1794.67121807882 
! Port Impedance         50               0                50               0                
38                             0.11980267443095 47.8716487762092 0.867181523454495 146.88107874259  0.867181523454494 146.88107874259  0.118635854168379 49.9360697344788 
! Gamma         61.1060994220872 1851.83817142205 58.3030678099648 1843.02896231375 
! Port Impedance         50               0                50               0                
39                             0.134924786544899 44.3289716872866 0.862703864799634 141.291117019409 0.862703864799633 141.291117019409 0.133914126515771 45.9954864509752 
! Gamma         62.5087445770919 1900.38965254158 59.6555320142627 1891.39123164378 
! Port Impedance         50               0                50               0                
40                             0.148788025388286 40.4234917904137 0.858178254480585 135.723534553841 0.858178254480585 135.723534553841 0.14789286191578 41.7729115030893 
! Gamma         63.9067595517757 1948.94544450403 61.0041229376263 1939.75853925548 
! Port Impedance         50               0                50               0                
41                             0.161254366024049 36.28507084002   0.853668808833305 130.178693128963 0.853668808833305 130.178693128963 0.160446277153282 37.373472236612  
! Gamma         65.3004140225328 1997.5060741999  62.3490808518637 1988.13136809361 
! Port Impedance         50               0                50               0                
42                             0.172216975178342 31.9947432769832 0.849237517317173 124.656147581338 0.849237517317173 124.656147581338 0.171475121417289 32.8621145770051 
! Gamma         66.6899704801436 2046.07203683089 63.6906391312001 2036.51017397859 
! Port Impedance         50               0                50               0                
43                             0.181593982446721 27.60562836081   0.844942111228636 119.154687461699 0.844942111228636 119.154687461699 0.180902402628597 28.2810468161081 
! Gamma         68.0756831804823 2094.64379917557 65.029023427766  2084.8953884678  
! Port Impedance         50               0                50               0                
44                             0.189324517257964 23.1540458634442 0.840834268368129 113.672403427113 0.840834268368129 113.672403427113 0.188670456430144 23.658880426654  
! Gamma         69.4577973886916 2143.22180257251 66.3644511023966 2133.28742148817 
! Port Impedance         50               0                50               0                
45                             0.195365847865538 18.6658503638055 0.836958174555539 108.206773535081 0.836958174555539 108.206773535081 0.194738657909177 19.0157956531287 
! Gamma         70.8365488888564 2191.8064656705  67.6971308599613 2181.68666376364 
! Port Impedance         50               0                50               0                
46                             0.199691169710696 14.1602919328669 0.833349438355103 102.754764706861 0.833349438355103 102.754764706861 0.199081538755331 14.3666802110329 
! Gamma         72.2121636905741 2240.39818695648 69.0272625720618 2230.09348901256 
! Port Impedance         50               0                50               0                
47                             0.202287877531969 9.65254366140295 0.830034338887487 97.3129450139706 0.830034338887487 97.3129450139706 0.201687250175942 9.7231889890405  
! Gamma         73.5848579148655 2288.9973470327  70.3550372302633 2278.5082559511  
! Port Impedance         50               0                50               0                
48                             0.203156271907732 5.15549999579415 0.827029378078681 91.8776029719751 0.82702937807868 91.8776029719751 0.202556376532518 5.09522148636054 
! Gamma         74.9548378046048 2337.60431071791 71.6806370131241 2326.93131012871 
! Port Impedance         50               0                50               0                
49                             0.202308694290674 0.681192600980398 0.82434110706019 86.444870584276  0.82434110706019 86.444870584276  0.201701121867022 0.492100798953506 
! Gamma         76.322299855186  2386.21942894976 73.0042354447798 2375.36298557307 
! Port Impedance         50               0                50               0                
50                             0.199769096652269 -3.7579527798133 0.82196620000296 81.0108473527627 0.82196620000296 81.0108473527627 0.199144889025757 -4.0763620792754 
! Gamma         77.6874310175785 2434.84304048846 74.3259976149948 2423.80360629673 
! Port Impedance         50               0                50               0                
51                             0.195573051951752 -8.14784618469749 0.819891755498211 75.5717228270147 0.819891755498212 75.5717228270147 0.194922261933405 -8.59877438645798 
! Gamma         79.0504089768748 2483.47547350568 75.6460804594468 2472.25348765039 
! Port Impedance         50               0                50               0                
52                             0.189768210768659 -12.4712814735307 0.818095813676034 70.1238954095295 0.818095813676034 70.1238954095295 0.189079393218095 -13.0608928718186 
! Gamma         80.4114024763649 2532.11704696934 76.9646330717798 2520.71293754988 
! Port Impedance         50               0                50               0                
53                             0.182415216250918 -16.7060941345336 0.816548084637518 64.6640851365501 0.816548084637517 64.6640851365501 0.18167479815564 -17.44399513509  
! Gamma         81.7705716719286 2580.76807193359 78.28179704702   2569.18225758183 
! Port Impedance         50               0                50               0                
54                             0.173589114727777 -20.8226236058082 0.815210888828007 59.189437975466  0.815210888828007 59.189437975466  0.172780569932776 -21.7226132185268 
! Gamma         83.1280685229541 2629.42885269068 79.5977068386926 2617.66174401687 
! Port Impedance         50               0                50               0                
55                             0.163381361960951 -24.7799841221934 0.814040311229506 53.6976189284076 0.814040311229506 53.6976189284076 0.162484075954567 -25.8611684658624 
! Gamma         84.484037186833  2678.0996878137  80.9124901313095 2666.15168870245 
! Port Impedance         50               0                50               0                
56                             0.151902662239088 -28.5202833265902 0.812987567750239 48.1868909365876 0.812987567750239 48.1868909365875 0.150890301047687 -29.8086903545949 
! Gamma         85.8386144297454 2726.78087110303 82.2262682126953 2714.65237989594 
! Port Impedance         50               0                50               0                
57                             0.139287168991612 -31.9592193919145 0.812000573432966 42.6561763739978 0.812000573432966 42.6561763739978 0.13812523867002 -33.4900906045264 
! Gamma         87.1919300351367 2775.47269243645 83.5391563501479 2763.16410300587 
! Port Impedance         50               0                50               0                
58                             0.125699200302806 -34.9700711273442 0.811025688340639 37.1050978758278 0.811025688340638 37.1050978758278 0.124341252982957 -36.7909834839263 
! Gamma         88.5441072154768 2824.17543854568 84.8512641587266 2811.68714126081 
! Port Impedance         50               0                50               0                
59                             0.111345006783038 -37.3551841839045 0.810009599250402 31.5339954776693 0.810009599250402 31.5339954776693 0.109726535822372 -39.5298125740878 
! Gamma         89.8952630107105 2872.88939372248 86.1626959671782 2860.22177633332 
! Port Impedance         50               0                50               0                
60                             0.0964953355018805 -38.7930188426974 0.80890127552295 25.9439176074036 0.808901275522952 25.9439176074037 0.0945237177195898 -41.4036674863675 
! Gamma         91.2455086851582 2921.61484045072 87.4735511703668 2908.7682888967  
! Port Impedance         50               0                50               0                
61                             0.0815322648266333 -38.7370589019623 0.807653918438484 20.3365844341988 0.807653918438484 20.3365844341988 0.079070384795875 -41.8769527188758 
! Gamma         92.5949501099255 2970.35205999354 88.7839245733034 2957.32695913593 
! Port Impedance         50               0                50               0                
62                             0.0670523381085302 -36.2278367080915 0.806226808103854 14.7143233855146 0.806226808103854 14.7143233855146 0.0638956362399507 -39.9449927923096 
! Gamma         93.9436881333082 3019.10133292269 90.0939067241398 3005.89806721928 
! Port Impedance         50               0                50               0                
63                             0.0540939107643508 -29.6247091288207 0.804586943992221 9.07997824939309 0.804586943992221 9.07997824939316 0.0499644678231494 -33.6721663858711 
! Gamma         95.2918189390145 3067.86293960677 91.4035842324018 3054.48189373634 
! Port Impedance         50               0                50               0                
64                             0.0445359252787218 -16.7973545508871 0.802710376839971 3.43679501446344 0.802710376839971 3.43679501446344 0.0392427227971749 -19.8703215296479 
! Gamma         96.6394343895431 3116.63716065892 92.7130400763875 3103.0787200829  
! Port Impedance         50               0                50               0                
65                             0.041080277006865 1.98918549223976 0.800583142383505 -2.21171070850638 0.800583142383505 -2.21171070850638 0.0351279877968788 2.45907306363134 
! Gamma         97.9866223552319 3165.42427735412 94.0223538958655 3151.68882886057 
! Port Impedance         50               0                50               0                
66                             0.0450731977426994 20.2254849360325 0.798201730878792 -7.86189840289284 0.798201730878792 -7.86189840289284 0.0396543569108376 24.2077802940543 
! Gamma         99.3334670285535 3214.22457201433 95.3316022734218 3200.31250419958 
! Port Impedance         50               0                50               0                
67                             0.0546112514034278 32.1307112600756 0.795573058320496 -13.510152232123 0.795573058320496 -13.510152232123 0.0502338559462418 37.1816721769741 
! Gamma         100.680049224627 3263.03832835922 96.6408590005012 3248.95003210108 
! Port Impedance         50               0                50               0                
68                             0.0669531442664015 38.0826569929835 0.792713941988653 -19.1530278173729 0.792713941988652 -19.1530278173729 0.0634873210781018 42.9739155373144 
! Gamma         102.026446667285 3311.8658318593  97.9501953322382 3297.60170074825 
! Port Impedance         50               0                50               0                
69                             0.0803384979870615 40.2219242164317 0.789650119736102 -24.7873887637758 0.789650119736101 -24.7873887637758 0.0775671418875464 44.6888325086884 
! Gamma         103.372734261543 3360.70737003943 99.2596802322076 3346.26780079259 
! Port Impedance         50               0                50               0                
70                             0.0938174638459513 40.0845192607395 0.786414884583104 -30.4105263352948 0.786414884583104 -30.4105263352948 0.0915804520030965 44.1481586602554 
! Gamma         104.71898435101  3409.56323278547 100.569380600894 3394.94862564802 
! Port Impedance         50               0                50               0                
71                             0.106852472334331 38.5591975340693 0.783047429876985 -36.0202570152934 0.783047429876985 -36.0202570152934 0.105045901016815 42.296925756736  
! Gamma         106.0652669664   3458.43371264662 101.879361497198 3443.64447175711 
! Port Impedance         50               0                50               0                
72                             0.119107756561775 36.1539167611261 0.77959101318018 -41.6149943496185 0.779591013180179 -41.6149943496186 0.117666049435456 39.6422779901306 
! Gamma         107.411650056823 3507.3191050974  103.189686346892 3492.35563886502 
! Port Impedance         50               0                50               0                
73                             0.13035475991461 33.1697348752663 0.776091048685   -47.1937932434777 0.776091048685001 -47.1937932434777 0.129237198316581 36.4736026537339 
! Gamma         108.758199714502 3556.21970881564 104.500417142872 3541.0824302746  
! Port Impedance         50               0                50               0                
74                             0.140428776902542 29.7934097412052 0.772593229562921 -52.7563665825114 0.772593229562921 -52.7563665825114 0.139611036547447 32.9663210662027 
! Gamma         110.104980384548 3605.13582595443 105.811614634993 3589.82515310756 
! Port Impedance         50               0                50               0                
75                             0.149207682953563 26.1460320044528 0.769141765753556 -58.3030755115066 0.769141765753556 -58.3030755115067 0.14867666721901 29.23270042309   
! Gamma         111.452055066506 3654.06776239448 107.123338511817 3638.58411855767 
! Port Impedance         50               0                50               0                
76                             0.156600584811204 22.3093861035823 0.765777802474758 -63.834895829278 0.765777802474758 -63.834895829278 0.156351257903149 25.3481973877928 
! Gamma         112.799485508602 3703.01582799537 108.435647574066 3687.35964214919 
! Port Impedance         50               0                50               0                
77                             0.162541196707035 18.340883192281  0.762538063382622 -69.3533637116683 0.762538063382622 -69.3533637116683 0.162574634406955 21.3659531786265 
! Gamma         114.147332386639 3751.98033687834 109.748599901701 3736.15204398815 
! Port Impedance         50               0                50               0                
78                             0.166983634294576 14.2824375413967 0.759453742521925 -74.8605043629975 0.759453742521925 -74.8605043629975 0.167305842563059 17.3252557980768 
! Gamma         115.495655482807 3800.96160765077 111.062253012897 3784.96164902446 
! Port Impedance         50               0                50               0                
79                             0.169899564248963 10.1660240755777 0.756549652899935 -80.3587472920071 0.756549652899935 -80.3587472920071 0.170520810507956 13.2567964048339 
! Gamma         116.844513850081 3849.9599636965  112.376664017417 3833.78878731058 
! Port Impedance         50               0                50               0                
80                             0.171276208984488 6.0173720279959  0.753843627638104 -85.8508317794967 0.753843627638104 -85.8508317794967 0.17221072498207 9.18617484069029 
! Gamma         118.19396597539  3898.97573340845 113.691889765689 3882.63379427059 
! Port Impedance         50               0                50               0                
81                             0.171114967281951 1.85860963074746 0.751346162416437 -91.3397058526243 0.751346162416437 -91.3397058526243 0.172380953115459 5.13645275367455 
! Gamma         119.544069932542 3948.00925048662 115.007986991295 3931.49701097236 
! Port Impedance         50               0                50               0                
82                             0.1694305360376  -2.28964916783139 0.74906028476812 -96.8284217855407 0.74906028476812 -96.8284217855407 0.171050443654649 1.13023113262014 
! Gamma         120.894883531417 3997.06085418687 116.325012450689 3980.37878440609 
! Port Impedance         50               0                50               0                
83                             0.166250479039679 -6.4064433476275 0.746981635798223 -102.320030872638 0.746981635798223 -102.320030872638 0.168251593470542 -2.80842373871806 
! Gamma         122.246464463121 4046.13088961173 117.643023057338 4029.27946777157 
! Port Impedance         50               0                50               0                