! Touchstone file exported from HFSS 2024.2.0
!        File:           C:/Users/vaintrug/Documents/Ansoft_Workspace/Comparaison_Calculs_HFSS/1_VarPort.aedt
!        Generated:      03:22:16 PM Jan 21, 2025
!        Design:         1_NoDeembed_FacePortFree
!        Project:        1_VarPort
!        Setup:          Setup1
!        Solution:       Sweep
!
! Variables:
!        $Lenght = 1500um
!        $PortSize = 120um
!        Gap = 30um
!        Th = 2um
!        X_centralStrip = 20um
!        X_masse = 200um
!        Y_Sub = 1.5mm
!        Z_Box = 400um
!        Z_Sub = 200um
!
# GHz S MA R 50.000000
! Terminal data exported
! Port[1] = 1
! Port[2] = 2
1                              0.0203839899446513 62.1606940064412 0.989086392948287 -4.42272380672006 0.989086392948287 -4.42272380672006 0.0203849134821967 62.1413513825931 
! Gamma         5.89012319533132 49.9314748361614 5.9892556154897  50.2947506822232 
! Port Impedance         50               0                50               0                
2                              0.0362863135430223 69.3822279133451 0.986585628851896 -8.74522329683141 0.986585628851896 -8.74522329683141 0.0362875763810639 69.3405828659713 
! Gamma         7.73752287980693 98.4041655578952 8.01569638156899 99.0215172633985 
! Port Impedance         50               0                50               0                
3                              0.0525776758809455 69.8775049135163 0.984139159771033 -13.0722853753909 0.984139159771034 -13.0722853753909 0.0525780033642741 69.8129895379553 
! Gamma         9.18212695707554 146.893883028151 9.57667740988038 147.664430026956 
! Port Impedance         50               0                50               0                
4                              0.0687596244159412 68.1166681398433 0.981448495779918 -17.3979112475816 0.981448495779918 -17.3979112475816 0.0687574301030171 68.02917124123   
! Gamma         10.524008622619  195.455145031149 10.986586433024  196.370458761124 
! Port Impedance         50               0                50               0                
5                              0.0845701853621761 65.3662126359191 0.978470747476042 -21.7165420282886 0.97847074747604 -21.7165420282886 0.084563918907378 65.2555499512379 
! Gamma         11.8498500924474 244.052732918853 12.3601601103318 245.118852801008 
! Port Impedance         50               0                50               0                
6                              0.0998442709114992 62.1103841788651 0.975219392333224 -26.0243546783717 0.975219392333224 -26.0243546783717 0.0998324544967712 61.9762262700767 
! Gamma         13.186164762288  292.662363029169 13.7361970196433 293.884804206663 
! Port Impedance         50               0                50               0                
7                              0.114459750876915 58.5717482886114 0.971726985294547 -30.318551746501 0.971726985294547 -30.318551746501 0.114440971139946 58.413628745591  
! Gamma         14.5414002982462 341.269624454514 15.1283406691528 342.651816344418 
! Port Impedance         50               0                50               0                
8                              0.128318914060132 54.8665131489694 0.968034775472638 -34.5970568657253 0.968034775472638 -34.5970568657254 0.128291809543457 54.6838384796717 
! Gamma         15.9175153906789 389.865684673787 16.5408495205221 391.409340567156 
! Port Impedance         50               0                50               0                
9                              0.141341239701184 51.0611931332354 0.964188357719612 -38.8583893924068 0.964188357719613 -38.8583893924068 0.141304488634948 50.8532465605092 
! Gamma         17.3137770192167 438.444930277298 17.9740266989871 440.150536520311 
! Port Impedance         50               0                50               0                
10                             0.153460044222531 47.1965055293962 0.960235130692961 -43.1016017106649 0.960235130692961 -43.1016017106649 0.153412352832233 46.9624457024743 
! Gamma         18.7282377554443 487.003761094689 19.4263647086068 488.870948459575 
! Port Impedance         50               0                50               0                
11                             0.164620547056623 43.298621723786  0.956222487328959 -47.3262358977162 0.956222487328959 -47.3262358977162 0.164560638149915 43.0374775090632 
! Gamma         20.1584046330866 535.539940731133 20.8955105545375 537.567745195724 
! Port Impedance         50               0                50               0                
12                             0.17477847707636 39.3849489060378 0.952196418759036 -51.5322840939692 0.952196418759036 -51.5322840939692 0.174705078723362 39.0956109787453 
! Gamma         21.601583372325  584.052215646623 22.3787525533809 586.239261893039 
! Port Impedance         50               0                50               0                
13                             0.1838988960082  35.4673249321913 0.948200420962482 -55.7201474630554 0.948200420962482 -55.7201474630554 0.183810730169035 35.1485343547877 
! Gamma         23.0550733431378 632.540069279101 23.873289266675  634.884702646682 
! Port Impedance         50               0                50               0                
14                             0.191955126573038 31.5538981239896 0.94427465361302 -59.8905927568305 0.94427465361302 -59.8905927568305 0.191850897523697 31.2042318881173 
! Gamma         24.516284343734  681.003548674166 25.3763870964449 683.503932207392 
! Port Impedance         50               0                50               0                
15                             0.198927756665725 27.6502974836021 0.940455316759067 -64.044707047562 0.940455316759067 -64.044707047562 0.198806139021111 27.2681506845692 
! Gamma         25.9828073414368 729.443133044318 26.8854747917671 732.097320399317 
! Port Impedance         50               0                50               0                
16                             0.204803722400981 23.7604003315203 0.936774214507936 -68.1838516363205 0.936774214507936 -68.1838516363205 0.204663348475263 23.3439645107503 
! Gamma         27.4524553822859 777.859629352918 28.3981986918696 780.665620211575 
! Port Impedance         50               0                50               0                
17                             0.209575482384552 19.8868618246754 0.933258475797845 -72.3096161364227 0.933258475797845 -72.3096161364227 0.209414928544955 19.4340987806083 
! Gamma         28.9232840712408 826.254086958065 29.912451982723  829.209869391488 
! Port Impedance         50               0                50               0                
18                             0.21324029577007 16.0314989077356 0.929930403744056 -76.4237735268537 0.929930403744057 -76.4237735268537 0.213058067347792 15.5401090774181 
! Gamma         30.3935975160132 874.627727234933 31.426386007095  877.731310018048 
! Port Impedance         50               0                50               0                
19                             0.215799613536341 12.1955834653473 0.92680742756051 -80.5282367155717 0.92680742756051 -80.5282367155717 0.215594127727018 11.6629676311311 
! Gamma         31.8619440268239 922.981885363328 32.9384090907336 926.231322407627 
! Port Impedance         50               0                50               0                
20                             0.21725858799314 8.38007878714898 0.923902134619623 -84.6250169393093 0.923902134619622 -84.6250169393093 0.217028154033842 7.80329156143915 
! Gamma         33.3271046800181 971.317962802993 34.4471767597697 974.711371209095 
! Port Impedance         50               0                50               0                
21                             0.21762570171827 4.58584215797525 0.921222364263593 -88.7161841370699 0.921222364263593 -88.7161841370699 0.217368497402297 3.96153513464982 
! Gamma         34.7880772030004 1019.63738886304 35.9515762530043 1023.17296188084 
! Port Impedance         50               0                50               0                
22                             0.216912513786575 0.813810138492156 0.918771349225483 -92.8038293165825 0.918771349225483 -92.8038293165825 0.216626557094435 0.138161968278585 
! Gamma         36.2440570470277 1067.94159026893 37.4507075204397 1071.6176061542  
! Port Impedance         50               0                50               0                
23                             0.215133518628974 -2.93481987784487 0.916547894597531 -96.8900288599672 0.916547894597531 -96.8900288599672 0.214816632844576 -3.66619016567071 
! Gamma         37.6944170734688 1116.23196766774 38.9438623810128 1120.04679514057 
! Port Impedance         50               0                50               0                
24                             0.212306110987616 -6.65839905608809 0.914546587991092 -100.976810695962 0.914546587991092 -100.976810695962 0.211955881102243 -7.45054041878216 
! Gamma         39.1386869595125 1164.50987793213 40.4305030498034 1168.46197902046 
! Port Impedance         50               0                50               0                
25                             0.20845064928593 -10.3546135272482 0.91275803770143 -105.066122277635 0.91275803770143 -105.066122277635 0.208064366659838 -11.2133797437143 
! Gamma         40.5765330676169 1212.7766215058  41.910240988031  1216.864552228   
! Port Impedance         50               0                50               0                
26                             0.203590608987507 -14.0202307408859 0.911169138293169 -109.159800351913 0.911169138293169 -109.159800351913 0.203165200061617 -14.9524550246945 
! Gamma         42.0077393463239 1261.03343372203 43.3828166383472 1265.25584313087 
! Port Impedance         50               0                50               0                
27                             0.197752817623433 -17.6507827206226 0.909763364944187 -113.259542571217 0.909763364944187 -113.259542571217 0.197284750710039 -18.6645031867194 
! Gamma         43.4321895809731 1309.28147955046 44.8480805048684 1313.63710748824 
! Port Impedance         50               0                50               0                
28                             0.19096776414222 -21.2401531360243 0.908521099149116 -117.366881077881 0.908521099149116 -117.366881077881 0.190452925678372 -22.3449077453998 
! Gamma         44.8498512283603 1357.52185095996 46.3059757968612 1362.00952489197 
! Port Impedance         50               0                50               0                
29                             0.183269977767534 -24.7800184262787 0.907419988959568 -121.48315828298 0.907419988959567 -121.48315828298 0.182703505360139 -25.9872363417031 
! Gamma         46.2607608821606 1405.75556635221 47.7565227692721 1410.37419748292 
! Port Impedance         50               0                50               0                
30                             0.174698476919146 -28.2590652199566 0.90643534679399 -125.609505137986 0.906435346793989 -125.609505137986 0.174074530130856 -29.5825942800266 
! Gamma         47.6650113980853 1453.98357158975 49.1998047715371 1458.73215056656 
! Port Impedance         50               0                50               0                
31                             0.165297298993054 -31.6618584939758 0.905540587028483 -129.746822286013 0.905540587028483 -129.746822286013 0.164608738528572 -33.118688459026 
! Gamma         49.0627406194321 1502.20674220987 50.6359559734268 1507.08433450164 
! Port Impedance         50               0                50               0                
32                             0.155116141086686 -34.9671508130071 0.904707704100811 -133.895764539514 0.904707704100811 -133.895764539514 0.154354069955351 -36.5784237873743 
! Gamma         50.4541215895174 1550.42588645652 52.0651506776871 1555.431627629   
! Port Impedance         50               0                50               0                
33                             0.144211178697907 -38.1452699259178 0.903907789725128 -138.056729166676 0.903907789725128 -138.056729166676 0.143364269627953 -39.9377208693848 
! Gamma         51.8393541717543 1598.6417488777  53.4875941130812 1603.7748398054  
! Port Impedance         50               0                50               0                
34                             0.13264620068234 -41.1539322245409 0.903111585246441 -142.229848497545 0.903111585246442 -142.229848497545 0.131699681943497 -43.1619870719125 
! Gamma         53.2186579132454 1646.85501429555 54.9035145648298 1652.11471646884 
! Port Impedance         50               0                50               0                
35                             0.120494343235758 -43.9312556282354 0.902290062147628 -146.41498731995 0.902290062147628 -146.41498731995 0.119428418629458 -46.2001534825289 
! Gamma         54.5922660405782 1695.06631192178 56.3131567231978 1700.45194284792 
! Port Impedance         50               0                50               0                
36                             0.107841012280426 -46.3835490958605 0.901415020616186 -150.611745489847 0.901415020616186 -150.611745489847 0.106628304680513 -48.9740755350949 
! Gamma         55.9604204535672 1743.27621951263 57.7167761050813 1748.78714831619 
! Port Impedance         50               0                50               0                
37                             0.0947892790326184 -48.3628167696566 0.900459692994269 -154.819466068758 0.900459692994268 -154.819466068758 0.0933905100684697 -51.3585345369385 
! Gamma         57.3233675859865 1791.48526752621 59.1146344233056 1797.12091073553 
! Port Impedance         50               0                50               0                
38                             0.0814707336404081 -49.6227270349412 0.899399336255404 -159.037249161487 0.899399336255404 -159.037249161487 0.0798270583246744 -53.140710151155 
! Gamma         58.6813550356078 1839.69394308711 60.5069957892031 1845.45376066227 
! Port Impedance         50               0                50               0                
39                             0.0680693155918553 -49.7264344644023 0.898211795590517 -163.263971451279 0.898211795590517 -163.263971451279 0.0660880334747895 -53.9306493901893 
! Gamma         60.0346288348912 1887.90269382618 61.8941236179144 1893.78618541824 
! Port Impedance         50               0                50               0                
40                             0.0548788793439523 -47.8405536228845 0.896878020052549 -167.498311217519 0.896878020052549 -167.498311217519 0.0524059829117094 -52.9422253788614 
! Gamma         61.3834312919652 1936.11193148126 63.2762781613425 1942.11863296457 
! Port Impedance         50               0                50               0                
41                             0.0424564697365794 -42.2642404995403 0.895382511212398 -171.738778405038 0.895382511212397 -171.738778405038 0.0392283645202727 -48.3982034928781 
! Gamma         62.7279992974527 1984.32203530927 64.6537145549822 1990.45151552535 
! Port Impedance         50               0                50               0                
42                             0.032045946082011 -29.5962474050649 0.893713687031539 -175.983749092864 0.893713687031538 -175.983749092864 0.0276749046206409 -35.9169597656472 
! Gamma         64.0685630361693 2032.53335522732 66.0266813122116 2038.78521299466 
! Port Impedance         50               0                50               0                
43                             0.0263791952515565 -6.05817465140552 0.891864145688282 179.768496502423 0.891864145688282 179.768496502423 0.020937442860844 -7.72169305169166 
! Gamma         65.4053450296468 2080.74621473694 67.3954191933295 2087.1200760939  
! Port Impedance         50               0                50               0                
44                             0.0284621509997746 21.1821754078238 0.889830817786578 175.519733518008 0.889830817786577 175.519733518008 0.0235995184792364 26.7795088611957 
! Gamma         66.7385594600495 2128.96091359689 68.7601603794492 2135.45642926131 
! Port Impedance         50               0                50               0                
45                             0.0368813195195919 38.758796499806  0.887614999990687 171.271750600605 0.887614999990686 171.271750600605 0.0333468586513389 45.5592018972627 
! Gamma         68.0684117255063 2177.17773029061 70.1211279137815 2183.7945733414  
! Port Impedance         50               0                50               0                
46                             0.0482390316372848 47.1242982663959 0.885222268352869 167.026307958297 0.885222268352869 167.026307958297 0.0456525013818195 52.9342952526605 
! Gamma         69.3950981759145 2225.39692426747 71.4785353489282 2232.1347880326  
! Port Impedance         50               0                50               0                
47                             0.0606786364271908 50.477646872077  0.882662275008146 162.785096559511 0.882662275008146 162.785096559511 0.0586910415968964 55.2462546377398 
! Gamma         70.7188060097155 2273.6187379683  72.8325865684932 2280.47733409214 
! Port Impedance         50               0                50               0                
48                             0.073403237802226 51.2089399912877 0.879948437101451 158.549699671252 0.87994843710145 158.549699671252 0.0718080084871811 55.1655415089016 
! Gamma         72.0397132900392 2321.84339867514 74.1834757573147 2328.82245536194 
! Port Impedance         50               0                50               0                
49                             0.0860307522268684 50.4745514344594 0.877097531368264 154.321557817973 0.877097531368264 154.321557817973 0.0847057126715152 53.8151044136459 
! Gamma         73.3579890557644 2370.07112017605 75.5313874698542 2377.17038060897 
! Port Impedance         50               0                50               0                
50                             0.0983440715511409 48.8603311152747 0.87412921138504 150.10193807688  0.874129211385041 150.10193807688  0.0972127165623866 51.7247254388403 
! Gamma         74.6737935129517 2418.30210427083 76.8764967984143 2425.52132516723 
! Port Impedance         50               0                50               0                
51                             0.110200480759544 46.6860646451187 0.871065466910725 145.891908429005 0.871065466910725 145.891908429005 0.109211914360812 49.1722098334848 
! Gamma         75.9872782778931 2466.53654212069 78.2189696074434 2473.87549243257 
! Port Impedance         50               0                50               0                
52                             0.121495857121193 44.1388134313499 0.867930045846402 141.6923176591   0.867930045846402 141.6923176591   0.120614311824176 46.3161112555463 
! Gamma         77.2985866723403 2514.77461544984 79.5589628175935 2522.2330751975  
! Port Impedance         50               0                50               0                
53                             0.132149020685414 41.3346054597863 0.864747859189856 137.503781072328 0.864747859189856 137.503781072328 0.131348108166386 43.2531916546446 
! Gamma         78.6078540396682 2563.01649765202 80.8966247266585 2570.59425686175 
! Port Impedance         50               0                50               0                
54                             0.142094223474804 38.3490018845817 0.861544388073327 133.326672079026 0.861544388073327 133.326672079026 0.14135360972431 40.0457425573266 
! Gamma         79.9152080910335 2611.26235474267 82.2320953626046 2618.95921250471 
! Port Impedance         50               0                50               0                
55                             0.151277211847667 35.2332472156899 0.858345109798712 129.161119501864 0.858345109798712 129.161119501864 0.150580597772832 36.7356304741446 
! Gamma         81.220769258702  2659.51234624023 83.5655068515969 2667.32810984984 
! Port Impedance         50               0                50               0                
56                             0.159652968838551 32.0233007766645 0.85517495697828 125.007010300192 0.85517495697828 125.007010300192 0.158986808188126 33.3520023395997 
! Gamma         82.5246510576522 2707.76662593234 84.8969837918987 2715.70111012445 
! Port Impedance         50               0                50               0                
57                             0.167184292534627 28.7451449189992 0.852057820764403 120.863997273652 0.852057820764403 120.863997273652 0.166536944261556 29.9157519939145 
! Gamma         83.8269604480757 2756.02534257265 86.2266436390092 2764.07836884076 
! Port Impedance         50               0                50               0                
58                             0.173840813141805 25.4180459240993 0.849016105964996 116.731511228339 0.849016105964997 116.731511228339 0.173201959064859 26.4422360234212 
! Gamma         85.1277981950974 2804.28864048501 87.5545970834586 2812.46003646382 
! Port Impedance         50               0                50               0                
59                             0.179598254936297 22.0566397176969 0.846070342837948 112.608777029821 0.846070342837948 112.608777029821 0.178958484110541 22.9429976602108 
! Gamma         86.427259220783  2852.55666011102 88.8809484251681 2860.84625903266 
! Port Impedance         50               0                50               0                
60                             0.184437847200565 18.6723180505441 0.843238857722785 108.494832953609 0.843238857722785 108.494832953609 0.183788347181523 19.4269061274341 
! Gamma         87.7254329482539 2900.82953849765 90.2057959423961 2909.23717869322 
! Port Impedance         50               0                50               0                
61                             0.188345837391306 15.2741857943311 0.840537502498296 104.388552751203 0.840537502498296 104.388552751203 0.187678154640129 15.9009403339924 
! Gamma         89.0224036343196 2949.10740971888 91.529232247448  2957.63293418898 
! Port Impedance         50               0                50               0                
62                             0.1913130849135  11.8697494626654 0.83797944123541 100.288669879689 0.837979441235409 100.288669879689 0.19061892949731 12.3707510228223 
! Gamma         90.318250688609  2997.3904052534  92.8513446293018 3006.03366127228 
! Port Impedance         50               0                50               0                
63                             0.193334726769139 8.46543546410676 0.835574991342081 96.1938033818117 0.835574991342081 96.1938033818117 0.19260580417339 8.84108311560155 
! Gamma         91.6130489830767 3045.67865432284 94.1722153865532 3054.43949309382 
! Port Impedance         50               0                50               0                
64                             0.194409912768897 5.06700127778496 0.833331515927952 92.1024849520367 0.833331515927952 92.1024849520367 0.193637770173753 5.31611034608319 
! Gamma         92.9068691427337 3093.97228417978 95.4919221432893 3102.85056052811 
! Port Impedance         50               0                50               0                
65                             0.194541610899267 1.67988233893252 0.831253364001454 88.0131867756668 0.831253364001453 88.0131867756668 0.193717487807127 1.79971716758421 
! Gamma         94.1997778254761 3142.27142036945 96.8105381516495 3151.26699246643 
! Port Impedance         50               0                50               0                
66                             0.193736484522447 -1.69049425133631 0.829341855353133 83.9243497616129 0.829341855353133 83.9243497616129 0.192851158785442 -1.70424673418617 
! Gamma         95.4918379879174 3190.57618696577 98.128132578083  3199.68891607723 
! Port Impedance         50               0                50               0                
67                             0.192004843298094 -5.03840411433455 0.827595307475453 79.8344118339619 0.827595307475452 79.8344118339619 0.191048463682745 -5.19171897169279 
! Gamma         96.7831091331071 3238.88670675164 99.4447707766936 3248.11645703261 
! Port Impedance         50               0                50               0                
68                             0.189360669706924 -8.3575050742059 0.826009102523182 75.741835963197  0.826009102523182 75.741835963197  0.188322565236035 -8.6581653309926 
! Gamma         98.0736475484648 3287.20310141347 100.760514545783 3296.54973970475 
! Port Impedance         50               0                50               0                
69                             0.185821723307928 -11.6404774286126 0.824575793019428 71.6451376326435 0.824575793019428 71.6451376326435 0.184690177655776 -12.098289079236 
! Gamma         99.363506528465  3335.52549168618 102.075422370424 3344.98888734606 
! Port Impedance         50               0                50               0                
70                             0.181409725867164 -14.8785959224495 0.82328524566944 67.5429114321775 0.82328524566944 67.5429114321775 0.180171701790372 -15.505684543037 
! Gamma         100.652736582    3383.85399747729 103.389549651671 3393.43402223393 
! Port Impedance         50               0                50               0                
71                             0.176150633004211 -18.0611951425156 0.822124823144179 63.433856461197  0.822124823144179 63.433856461197  0.174791426673313 -18.8724026410867 
! Gamma         101.941385631321 3432.18873799698 104.702948920737 3441.88526580784 
! Port Impedance         50               0                50               0                
72                             0.170075002851134 -21.1749746226256 0.8210796039868  59.3168002009002 0.8210796039868  59.3168002009002 0.16857780019702 -22.1883820863487 
! Gamma         103.22949919298  3480.52983185361 106.015670041469 3490.34273878572 
! Port Impedance         50               0                50               0                
73                             0.163218481184267 -24.2030648532747 0.82013264078171 55.1907204899517 0.82013264078171 55.1907204899517 0.161563776622193 -25.4406767843457 
! Gamma         104.517120551981 3528.87739713202 107.32776039708  3538.80656126069 
! Port Impedance         50               0                50               0                
74                             0.155622438253287 -27.1237347594653 0.819265256371569 51.0547652115645 0.819265256371569 51.0547652115645 0.153787258249146 -28.6123712351872 
! Gamma         105.804290921651 3577.23155148174 108.639265069358 3587.27685279097 
! Port Impedance         50               0                50               0                
75                             0.147334820031359 -29.9085547358615 0.818457377180265 46.9082692768854 0.818457377180266 46.9082692768854 0.145291666386877 -31.6810099611907 
! Gamma         107.09104959365  3625.59241217246 109.95022700147  3635.75373247303 
! Port Impedance         50               0                50               0                
76                             0.138411324808933 -32.5197189380963 0.817687901595865 42.7507684759    0.817687901595865 42.7507684759    0.136126709520754 -34.6162523331681 
! Gamma         108.377434078235 3673.96009614875 111.260687153688 3684.23731900113 
! Port Impedance         50               0                50               0                
77                             0.128917101684897 -34.9060442568404 0.816935099917721 38.5820097684966 0.816935099917721 38.5820097684966 0.126349477639294 -37.3762582230815 
! Gamma         109.663480233113 3722.33472008251 112.570684644956 3732.7277307327  
! Port Impedance         50               0                50               0                
78                             0.11892932294286 -36.9968450437444 0.816177040642316 34.4019576109721 0.816177040642316 34.4019576109721 0.116026108632326 -39.9019273324773 
! Gamma         110.94922238739  3770.71640040835 113.880256888442 3781.22508572135 
! Port Impedance         50               0                50               0                
79                             0.108541271363281 -38.6923366869817 0.815392035959431 30.2107959572666 0.815392035959429 30.2107959572666 0.105234505413132 -42.1073784282351 
! Gamma         112.234693451161 3819.10525335007 115.189439714978 3829.72950177131 
! Port Impedance         50               0                50               0                
80                             0.097869134079844 -39.8483039430221 0.814559097376196 26.0089256487663 0.814559097376196 26.0089256487663 0.0940690679495114 -43.8635848213855 
! Gamma         113.519925021388 3867.5013949655  116.498267488699 3878.24109645162 
! Port Impedance         50               0                50               0                
81                             0.0870637584491379 -40.2513565994456 0.813658390576928 21.7969570091827 0.813658390576927 21.7969570091828 0.0826494713530918 -44.9690602433619 
! Gamma         114.804947479716 3915.90494114991 117.806773214271 3926.75998714235 
! Port Impedance         50               0                50               0                
82                             0.0763316563904674 -39.5795610713075 0.812671677116613 17.575697587469  0.812671677116613 17.575697587469  0.0711379958438776 -45.0952250798418 
! Gamma         116.089790080637 3964.31600766943 119.114988637344 3975.28629104972 
! Port Impedance         50               0                50               0                
83                             0.0659730731834502 -37.3448165705957 0.811582729545286 13.3461351467776 0.811582729545286 13.3461351467776 0.0597759049430108 -43.6819539897205 
! Gamma         117.37448103685  4012.73471016966 120.422944336117 4023.8201252164  
! Port Impedance         50               0                50               0                