! Touchstone file exported from HFSS 2024.2.0
!        File:           C:/Users/vaintrug/Documents/Ansoft_Workspace/Comparaison_Calculs_HFSS/1_VarPort.aedt
!        Generated:      03:22:17 PM Jan 21, 2025
!        Design:         1_NoDeembed_FacePortFree
!        Project:        1_VarPort
!        Setup:          Setup1
!        Solution:       Sweep
!
! Variables:
!        $Lenght = 1500um
!        $PortSize = 370um
!        Gap = 30um
!        Th = 2um
!        X_centralStrip = 20um
!        X_masse = 200um
!        Y_Sub = 1.5mm
!        Z_Box = 400um
!        Z_Sub = 200um
!
# GHz S MA R 50.000000
! Terminal data exported
! Port[1] = 1
! Port[2] = 2
1                              0.0205338110375106 62.3502034470857 0.989084643828593 -4.42893325628958 0.989084643828594 -4.42893325628958 0.0205386075897022 62.3146754050609 
! Gamma         5.85102494696905 49.7824696243952 5.98748908662112 49.7944371054872 
! Port Impedance         50               0                50               0                
2                              0.0365636052373353 69.4097630216685 0.986522774326154 -8.75471502402121 0.986522774326152 -8.75471502402122 0.0365774769555309 69.3176445291207 
! Gamma         7.53711301960866 98.3489225509522 7.81559867953414 98.230727533966  
! Port Impedance         50               0                50               0                
3                              0.0529414132560237 69.879687117352  0.984041351411888 -13.0837537583464 0.984041351411888 -13.0837537583464 0.0529610413196403 69.7288614808836 
! Gamma         8.91885286208128 146.95838304774  9.26737828368091 146.651520716428 
! Port Impedance         50               0                50               0                
4                              0.0692046450452184 68.125691586535  0.981324600825371 -17.411342972395 0.981324600825371 -17.4113429723951 0.069226092564745 67.9174879315289 
! Gamma         10.2300782234329 195.627552856301 10.6135760885712 195.134361685844 
! Port Impedance         50               0                50               0                
5                              0.0850930845616235 65.3895597490128 0.978322255251238 -21.7319404355036 0.978322255251238 -21.7319404355036 0.0851129326893051 65.1248032682504 
! Gamma         11.536031332291  244.324043940157 11.9414282951123 243.651558458127 
! Port Impedance         50               0                50               0                
6                              0.100439653776069 62.1500423008903 0.975045637590901 -26.0416462496347 0.975045637590901 -26.0416462496347 0.100454930451213 61.8290304758    
! Gamma         12.8559713027494 293.027531932375 13.2786651250205 292.180657357243 
! Port Impedance         50               0                50               0                
7                              0.115120252201238 58.6282972960968 0.971526889102732 -30.3376033035878 0.971526889102732 -30.3376033035878 0.115128341762505 58.2509849763513 
! Gamma         14.1955725969661 341.726270153206 14.6343604842813 340.707784983896 
! Port Impedance         50               0                50               0                
8                              0.129035591621234 54.9401477682613 0.967807495098061 -34.6176971953736 0.967807495098062 -34.6176971953736 0.129034176502853 54.5062614020607 
! Gamma         15.555662239102  390.413146199675 16.0107718841844 389.224324822215 
! Port Impedance         50               0                50               0                
9                              0.142103941972585 51.1520068640183 0.963933546438094 -38.8804265851617 0.963933546438093 -38.8804265851617 0.14209096186535 50.6611067035145 
! Gamma         16.9350556344125 439.08369420193  17.407309751874  437.724796212587 
! Port Impedance         50               0                50               0                
10                             0.154257718942753 47.3045684837759 0.95995302999601 -43.1248369203201 0.95995302999601 -43.1248369203201 0.154231338829696 46.756082275334  
! Gamma         18.3316646707578 487.735114431582 18.8220967919353 486.205713090023 
! Port Impedance         50               0                50               0                
11                             0.165441499506388 43.4239952037477 0.955913934007289 -47.3504745119984 0.955913934007289 -47.3504745119984 0.165400083128583 42.8172360703343 
! Gamma         19.7430090294967 536.365752116626 20.2526755030523 534.664952020182 
! Port Impedance         50               0                50               0                
12                             0.175610587145057 39.5276799285159 0.951862803162055 -51.5573448956009 0.951862803162054 -51.5573448956009 0.175552674702361 38.8618548859554 
! Gamma         21.1664864336817 584.974789948205 21.6963709456254 583.101375299313 
! Port Impedance         50               0                50               0                
13                             0.184729800185872 35.6274348920637 0.947843615478385 -55.7458700791095 0.947843615478384 -55.7458700791095 0.184654089871412 34.9016471809084 
! Gamma         22.5995294931295 633.562046090474 23.150494756157  631.514584948027 
! Port Impedance         50               0                50               0                
14                             0.192772369348161 31.7313704965435 0.943896923043543 -59.9168435566603 0.943896923043542 -59.9168435566604 0.192677702488821 30.9446173174731 
! Gamma         24.0397011111262 682.127828029816 24.6124662477751 679.904748335533 
! Port Impedance         50               0                50               0                
15                             0.199718915104077 27.8450661802779 0.940059218598569 -64.0713835986799 0.940059218598569 -64.0713835986799 0.19960426460666 26.9962325853299 
! Gamma         25.4847522639632 730.672819417309 26.0798851167697 728.272465666589 
! Port Impedance         50               0                50               0                
16                             0.205556507698628 23.9723391820334 0.936362494931933 -68.2108858124561 0.936362494931933 -68.2108858124561 0.205420969339641 23.0601883437613 
! Gamma         26.9326547150381 779.197988442598 27.5505731158041 776.618664868648 
! Port Impedance         50               0                50               0                
17                             0.210277822343074 20.1157751735233 0.932833965637562 -72.3369759633709 0.932833965637562 -72.3369759633709 0.210120608282877 19.1389349714107 
! Gamma         28.3816160918809 827.704512139772 29.0225946900709 824.944515759967 
! Port Impedance         50               0                50               0                
18                             0.213880402180482 16.2771131628416 0.929495917591055 -76.4514638642831 0.929495917591056 -76.4514638642831 0.21370083592822 15.2340587194457 
! Gamma         29.8300823931564 876.193713528617 30.4942628416518 873.251359546179 
! Port Impedance         50               0                50               0                
19                             0.216366038421808 12.4575393055335 0.926365668259088 -80.5562988726353 0.926365668259088 -80.5562988726353 0.216163550358728 11.3465709143261 
! Gamma         31.2767315659709 924.667009617989 31.964134695105  921.540650566299 
! Port Impedance         50               0                50               0                
20                             0.217740272517675 8.65792377015232 0.92345560472688 -84.6535273235246 0.92345560472688 -84.6535273235246 0.217514394958882 7.47713930737859 
! Gamma         32.7204609890609 973.125868853907 33.4309999028453 969.813908953073 
! Port Impedance         50               0                50               0                
21                             0.218012021264942 4.87902338215224 0.920773285559488 -88.7452520335855 0.920773285559488 -88.7452520335855 0.217762381923643 3.62628402253566 
! Gamma         34.1603709779191 1021.57177699242 34.8938644501809 1018.07268233099 
! Port Impedance         50               0                50               0                
22                             0.217193322224793 1.12166662797833 0.918321591041631 -92.8335938944881 0.91832159104163 -92.8335938944882 0.216919634784676 -0.205445790050525 
! Gamma         35.5957460604737 1070.006210125   36.351931688621  1066.31851565504 
! Port Impedance         50               0                50               0                
23                             0.215299194349636 -2.61306539693826 0.916098911517862 -96.9206554935648 0.916098911517862 -96.9206554935648 0.21500124462597 -4.01730163309182 
! Gamma         37.0260352504154 1118.4306140709  37.8045820564699 1114.55292784027 
! Port Impedance         50               0                50               0                
24                             0.212347606564661 -6.32364934870132 0.914099367416832 -101.008486693457 0.914099367416832 -101.008486693457 0.212025232436546 -7.8081596916262 
! Gamma         38.450832299549  1166.84638903156 39.251352528415  1162.77739430969 
! Port Impedance         50               0                50               0                
25                             0.208359545923824 -10.0079073334149 0.912313057768257 -105.099052103185 0.912313057768257 -105.099052103185 0.208012608732747 -11.576326473424 
! Gamma         39.8698566020942 1215.2548787967  40.6919165781666 1210.99333441158 
! Port Impedance         50               0                50               0                
26                             0.203359176100812 -13.6627547835477 0.910726336679402 -109.194200431592 0.910726336679402 -109.194200431592 0.202987520519387 -15.319310546319 
! Gamma         41.2829351974611 1263.65736355566 42.1260651784687 1259.20210288972 
! Port Impedance         50               0                50               0                
27                             0.197374076938396 -17.2838852831054 0.909322119185542 -113.295635774978 0.909322119185542 -113.295635774978 0.196977475249551 -19.0335395793928 
! Gamma         42.6899861838854 1312.05505575482 43.5536891495625 1307.40498465614 
! Port Impedance         50               0                50               0                
28                             0.190435556588381 -20.8653588106247 0.908080219149638 -117.404890982643 0.908080219149636 -117.404890982643 0.190013631686692 -22.7139928269827 
! Gamma         44.0910036558728 1360.44909826494 44.9747630842842 1355.6031922435  
! Port Impedance         50               0                50               0                
29                             0.182579030249981 -24.3990426827201 0.906977722398655 -121.523303321027 0.906977722398655 -121.523303321027 0.182131149146383 -26.3537038635511 
! Gamma         45.486044262016  1408.84056443072 46.3893308999314 1403.79786522237 
! Port Impedance         50               0                50               0                
30                             0.173844464564796 -27.8738255377876 0.905989398096772 -125.651992757861 0.905989398096771 -125.651992757861 0.173369590158092 -29.9430624512228 
! Gamma         46.8752153308432 1457.23045945375 47.7974930303543 1451.99007126259 
! Port Impedance         50               0                50               0                
31                             0.16427689675534 -31.2744747755628 0.905088150437794 -129.791843256162 0.905088150437794 -129.791843256162 0.163773379061017 -33.4687995470976 
! Gamma         48.2586645173395 1505.61972285694 49.1993952042047 1500.18080832369 
! Port Impedance         50               0                50               0                
32                             0.153927056780618 -34.5799194329312 0.904245511125717 -133.943487539497 0.904245511125718 -133.943487539497 0.153392333788065 -36.912459354374 
! Gamma         49.6365708589727 1554.00923158414 50.5952187014494 1548.37100770172 
! Port Impedance         50               0                50               0                
33                             0.142852157395564 -37.7605778318044 0.903432170905263 -138.107295821384 0.903432170905264 -138.107295821384 0.142282316575919 -40.248014065283 
! Gamma         51.0091371214975 1602.39980364895 51.9851719989428 1596.56153760502 
! Port Impedance         50               0                50               0                
34                             0.131116989015392 -40.7740378238521 0.902618545676025 -142.283369010118 0.902618545676025 -142.283369010118 0.130506106000974 -43.4379903344342 
! Gamma         52.3765833362419 1650.79220197838 53.3694836439926 1644.75320713529 
! Port Impedance         50               0                50               0                
35                             0.118795603510697 -43.5577714537803 0.901775369638446 -146.471536863804 0.901775369638447 -146.471536863804 0.118134709582245 -46.4268938516278 
! Gamma         53.7391413483874 1699.1871384538  54.7483962643679 1692.94677038208 
! Port Impedance         50               0                50               0                
36                             0.105974188637185 -46.0162379297438 0.900874304717942 -150.671361507216 0.900874304717942 -150.671361507216 0.105249590893405 -49.1294622144149 
! Gamma         55.0970503084957 1747.58527790382 56.1221615479429 1741.1429306254  
! Port Impedance         50               0                50               0                
37                             0.0927564687754015 -47.9967328877439 0.899888552427296 -154.882146611707 0.899888552427295 -154.882146611707 0.091946882328432 -51.408377679758 
! Gamma         56.4505529565141 1795.98724207062 57.4910361096502 1789.34234445937 
! Port Impedance         50               0                50               0                
38                             0.0792748080476708 -49.2411108160022 0.898793451638926 -159.10295238425 0.898793451638925 -159.10295238425 0.0783461846744964 -53.0288349003763 
! Gamma         57.7998925981432 1844.39361340929 58.8552780972635 1837.54562580686 
! Port Impedance         50               0                50               0                
39                             0.065715265011634 -49.2818320168661 0.897567043784549 -163.332616327918 0.897567043784548 -163.332616327918 0.0646109167490767 -53.5576253699129 
! Gamma         59.1453106834196 1892.80493872708 60.215144455631  1885.75334980007 
! Port Impedance         50               0                50               0                
40                             0.0523803496044932 -47.2004919117252 0.896190585991278 -167.569779521845 0.896190585991279 -167.569779521846 0.0510012868494292 -52.1157000098085 
! Gamma         60.4870448864102 1941.22173262979 61.5708887469513 1933.96605640865 
! Port Impedance         50               0                50               0                
41                             0.039864606066296 -41.0464208971345 0.894648992866435 -171.812917939155 0.894648992866435 -171.812917939155 0.038033051254037 -46.7144374944073 
! Gamma         61.8253276238785 1989.64448072042 62.9227594424905 1982.18425388895 
! Port Impedance         50               0                50               0                
42                             0.029569804340118 -26.7584805708581 0.892931189134585 -176.060378101241 0.892931189134584 -176.060378101241 0.0270144030433854 -32.6091474983382 
! Gamma         63.1603849266149 2038.0736426119  64.2709986199076 2030.40842200359 
! Port Impedance         50               0                50               0                
43                             0.0246677010772904 -0.289072872620205 0.891030358127098 179.68958384653  0.891030358127098 179.68958384653  0.0214436042356352 -3.11141785285453 
! Gamma         64.4924356239534 2086.50965468613 65.6158409926161 2078.63901497784 
! Port Impedance         50               0                50               0                
44                             0.0281135888202237 27.7670658529779 0.888944075083966 175.438760722688 0.888944075083965 175.438760722688 0.0252029266837248 28.9463708200116 
! Gamma         65.821690769098  2134.95293265609 66.9575132182618 2126.8764642805  
! Port Impedance         50               0                50               0                
45                             0.037529977452628 43.9848758043112 0.886674319106692 171.188951764041 0.886674319106691 171.188951764041 0.0352717612334787 45.6721151103378 
! Gamma         67.1483532801738 2183.40387389547 68.2962334421535 2175.12118112669 
! Port Impedance         50               0                50               0                
46                             0.0494108193804379 51.1726621682122 0.884227363009827 166.941920223339 0.884227363009827 166.941920223339 0.04759119351822 52.2943610342155 
! Gamma         68.4726177433544 2231.86285960457 69.6322110320256 2223.37355882762 
! Port Impedance         50               0                50               0                
47                             0.062116664564994 53.7942478271496 0.881613545870802 162.699352374263 0.881613545870803 162.699352374263 0.0605545145588941 54.3284716107862 
! Gamma         69.7946703584235 2280.33025673945 70.9656464632462 2271.63397488653 
! Port Impedance         50               0                50               0                
48                             0.0749712114432826 54.0725841016804 0.878846938295597 158.462819127082 0.878846938295597 158.462819127082 0.0735584935649709 54.1332560519849 
! Gamma         71.1146889909101 2328.80641981961 72.2967313326083 2319.90279295407 
! Port Impedance         50               0                50               0                
49                             0.0876467606321211 53.0452359802165 0.875944914921136 154.233741328903 0.875944914921136 154.233741328903 0.0863183843369842 52.7311939487424 
! Gamma         72.4328433099386 2377.29169253793 73.6256484718677 2368.18036458868 
! Port Impedance         50               0                50               0                
50                             0.0999521917311934 51.233142814611  0.872927652128097 150.013359642608 0.872927652128096 150.013359642608 0.0986667051373968 50.6160144484389 
! Gamma         73.7492949988058 2425.78640922713 74.952572137598  2416.46703084836 
! Port Impedance         50               0                50               0                
51                             0.111758477394318 48.9204918192842 0.869817571129563 145.802709693428 0.869817571129563 145.802709693428 0.110488005060714 48.0510161398752 
! Gamma         75.0641980107299 2474.29089621725 76.2776682651185 2464.76312376578 
! Port Impedance         50               0                50               0                
52                             0.122969462780802 46.2738802423475 0.866638747472513 141.602602936413 0.866638747472513 141.602602936413 0.121694393062094 45.1883525564825 
! Gamma         76.3776988693243 2522.80547303977 77.6010947628027 2513.06896766589 
! Port Impedance         50               0                50               0                
53                             0.13350908310544 43.3969431099296 0.863416307569246 137.413613467178 0.863416307569246 137.413613467178 0.132215124245828 42.1217564133191 
! Gamma         77.689936991792  2571.33045352131 78.9230018476107 2561.38488036836 
! Port Impedance         50               0                50               0                
54                             0.143315197320377 40.3573626692147 0.860175831357217 133.236070783905 0.860175831357217 133.236070783905 0.141991659906798 38.9120082293147 
! Gamma         79.0010450351666 2619.86614680916 80.2435323938869 2609.71117428503 
! Port Impedance         50               0                50               0                
55                             0.152336323374112 37.2011502679873 0.856942777795434 129.070058309138 0.856942777795434 129.070058309138 0.150975069052336 35.6001919148241 
! Gamma         80.3111492487512 2668.4128582626  81.5628223096768 2658.04815741453 
! Port Impedance         50               0                50               0                
56                             0.160529735975765 33.9606495312377 0.853741946946292 124.915417323696 0.853741946946292 124.915417323696 0.159124505261321 32.2150394121205 
! Gamma         81.6203698389084 2716.97089030038 82.8810009090144 2706.39613424913 
! Port Impedance         50               0                50               0                
57                             0.167860241306129 30.6592527782187 0.850596989149734 120.771755844154 0.850596989149734 120.771755844153 0.166406206093243 28.7772231294132 
! Gamma         82.9288213284481 2765.54054314541 84.1981912981682 2754.75540660042 
! Port Impedance         50               0                50               0                
58                             0.174299306861258 27.3143071081203 0.847529968564558 116.63846189104  0.847529968564558 116.63846189104  0.172792760814635 25.3019842590674 
! Gamma         84.2366129169412 2814.12211553506 85.5145107519753 2803.12627436019 
! Port Impedance         50               0                50               0                
59                             0.179824390705959 23.9389792748646 0.844560985335418 112.514720554837 0.844560985335419 112.514720554837 0.17826252664432 21.8008114127142 
! Gamma         85.5438488363294 2862.7159053461  86.830071093157  2851.50903618944 
! Port Impedance         50               0                50               0                
60                             0.184418394336412 20.5434995620655 0.841707858039209 108.399534249406 0.841707858039209 108.399534249406 0.182799137575264 18.2825562692091 
! Gamma         86.8506286961096 2911.32221018711 88.1449790588915 2899.90399015475 
! Port Impedance         50               0                50               0                
61                             0.188069203260765 17.1360242320684 0.838985865959606 104.291745561451 0.838985865959606 104.291745561451 0.186391081222255 14.7542050655058 
! Gamma         88.15704782007   2959.9413279434  89.4593366604486 2948.3114343199  
! Port Impedance         50               0                50               0                
62                             0.190769299645532 13.7232586424332 0.836407549191779 100.190062134188 0.836407549191779 100.190062134188 0.189031334680697 11.2214349166306 
! Gamma         89.4631975756684 3008.57355727493 90.7732415350258 2996.73166729267 
! Port Impedance         50               0                50               0                
63                             0.192515441483381 10.3109286918593 0.833982563586429 96.0930830694971 0.833982563586429 96.0930830694971 0.190717057774098 7.68903410027061 
! Gamma         90.7691656861709 3057.21919809654 92.0867872817043 3045.16498872511 
! Port Impedance         50               0                50               0                
64                             0.193308407489265 6.90415707238358 0.831717587054708 91.9993263825038 0.831717587054708 91.9993263825038 0.19144934519534 4.16123706008732 
! Gamma         92.0750365384329 3105.87855201317 93.400063789122  3093.61169980306 
! Port Impedance         50               0                50               0                
65                             0.193152808823985 3.50778278783676 0.829616273703062 87.9072570898735 0.829616273703061 87.9072570898735 0.191233039890572 0.642008522680612 
! Gamma         93.3808914741387 3154.55192274193 94.7131575489964 3142.07210367568 
! Port Impedance         50               0                50               0                
66                             0.192056969098925 0.126652204258406 0.827679252559857 83.815315557938  0.827679252559857 83.815315557938  0.190076609666101 -2.86469807825544 
! Gamma         94.6868090702719 3203.23961650323 96.0261519573838 3190.546505894   
! Port Impedance         50               0                50               0                
67                             0.190032873858904 -3.23409524536128 0.825904168173435 79.721945769451  0.825904168173436 79.721945769451  0.187992088176457 -6.35468731139109 
! Gamma         95.9928654093477 3251.9419424055  97.3391276065829 3239.03521480429 
! Port Impedance         50               0                50               0                
68                             0.187096190241823 -6.56872505438399 0.82428576102872 75.625623189855  0.82428576102872 75.625623189855  0.184995080422069 -9.82325432189613 
! Gamma         97.2991343379697 3300.65921281213 98.6521625601452 3287.53854194597 
! Port Impedance         50               0                50               0                
69                             0.18326635739484 -9.87056593178766 0.822815986403587 71.5248819262725 0.822815986403588 71.5248819262725 0.18110483218943 -13.2648823641269 
! Gamma         98.6056877132646 3349.3917436854  99.9653326199282 3336.05680241902 
! Port Impedance         50               0                50               0                
70                             0.17856674875431 -13.1315997602771 0.821484170904908 67.4183408700097 0.821484170904907 67.4183408700097 0.17634436266611 -16.6728795101691 
! Gamma         99.9125956416154 3398.13985494757 101.278711582344 3384.59031524778 
! Port Impedance         50               0                50               0                
71                             0.173024909209815 -16.341944801036 0.820277206370944 63.3047285015669 0.820277206370944 63.3047285015669 0.170740660352814 -20.0389196161078 
! Gamma         101.219926705547 3446.90387080559 102.592371482375 3433.13940374031 
! Port Impedance         50               0                50               0                
72                             0.166672874275553 -19.4891772350618 0.819179781041771 59.1829060201666 0.819179781041771 59.1829060201667 0.164324945003126 -23.352437069086 
! Gamma         102.527748182006 3495.68412009995 103.906382827189 3481.70439584187 
! Port Impedance         50               0                50               0                
73                             0.159547586284529 -22.5574090204082 0.818174647811143 55.0518884341026 0.818174647811143 55.0518884341026 0.157133003908488 -26.5997989433624 
! Gamma         103.83612625311  3544.48093662982 105.220814823248 3530.28562448245 
! Port Impedance         50               0                50               0                
74                             0.151691436888407 -25.5259953456271 0.817242928944603 50.910863229951  0.817242928944603 50.910863229951  0.149205621510337 -29.7631347316442 
! Gamma         105.145126208418 3593.29465949724 106.535735593181 3578.88342792381 
! Port Impedance         50               0                50               0                
75                             0.143152990613829 -28.3676700491768 0.816364455863476 46.7592062159325 0.816364455863476 46.7592062159325 0.140589140980557 -32.8186295593161 
! Gamma         106.45481263987  3642.12563343803 107.851212383403 3627.49815011703 
! Port Impedance         50               0                50               0                
76                             0.133987989896579 -31.0457792699226 0.815518141446965 42.5964941352171 0.815518141446965 42.5964941352171 0.131336232654665 -35.733956263127 
! Gamma         107.765249630548 3690.97420916767 109.167311768527 3676.13014104081 
! Port Impedance         50               0                50               0                
77                             0.124260825214646 -33.5100590671887 0.814682380863379 38.422513647276  0.814682380863379 38.422513647276  0.121507011961289 -38.4642852604402 
! Gamma         109.076500938095 3739.84074372558 110.48409984454  3724.77975708407 
! Port Impedance         50               0                50               0                
78                             0.114046809935566 -35.6899996891932 0.813835475252477 34.2372663098799 0.813835475252477 34.2372663098799 0.111170780382662 -40.9458674894648 
! Gamma         110.388630172151 3788.72560083375 111.80164242073  3773.44736139221 
! Port Impedance         50               0                50               0                
79                             0.103435901670673 -37.4841003948915 0.812956070770597 30.0409692461475 0.812956070770597 30.0409692461475 0.100408926337335 -43.0853223241712 
! Gamma         111.701700968949 3837.62915125934 113.120005203259 3822.13332425478 
! Port Impedance         50               0                50               0                
80                             0.0925391189009652 -38.7419510795506 0.812023603720838 25.8340512580274 0.812023603720838 25.8340512580274 0.0893200792743596 -44.7410202936851 
! Gamma         113.015777159989 3886.55177318613 114.439253976619 3870.83802347912 
! Port Impedance         50               0                50               0                
81                             0.0815001633613948 -39.233595740704 0.811018740863035 21.6171442572102 0.811018740863035 21.6171442572102 0.0780298517319554 -45.6893331901311 
! Gamma         114.330922940129 3935.49385260934 115.759454780869 3919.56184480337 
! Port Impedance         50               0                50               0                
82                             0.0705174332284076 -38.5966208794722 0.809923802728504 17.3910700094837 0.809923802728504 17.3910700094837 0.0667104278582258 -45.5609998083352 
! Gamma         115.647203031277 3984.45578372753 117.080674085977 3968.30518229646 
! Port Impedance         50               0                50               0                
83                             0.0598871289590755 -36.2480018752154 0.808723157002184 13.1568223376804 0.808723157002184 13.1568223376804 0.0556224183668334 -43.718639216272 
! Gamma         116.964682845939 4033.43796935744 118.402978964117 4017.06843878749 
! Port Impedance         50               0                50               0                