! Touchstone file exported from HFSS 2024.2.0
!        File:           C:/Users/vaintrug/Documents/Ansoft_Workspace/Comparaison_Calculs_HFSS/1_VarPort.aedt
!        Generated:      03:22:18 PM Jan 21, 2025
!        Design:         1_NoDeembed_FacePortFree
!        Project:        1_VarPort
!        Setup:          Setup1
!        Solution:       Sweep
!
! Variables:
!        $Lenght = 2000um
!        $PortSize = 90um
!        Gap = 30um
!        Th = 2um
!        X_centralStrip = 20um
!        X_masse = 200um
!        Y_Sub = 2mm
!        Z_Box = 400um
!        Z_Sub = 200um
!
# GHz S MA R 50.000000
! Terminal data exported
! Port[1] = 1
! Port[2] = 2
1                              0.0275124315911417 61.0594773174273 0.985400817711663 -5.90582613214026 0.985400817711663 -5.90582613214026 0.0275119077342829 61.0470504500907 
! Gamma         5.57005527914217 49.6319145553582 5.68116451099133 49.8911317230719 
! Port Impedance         50               0                50               0                
2                              0.0489641299628473 66.6890523586549 0.981878038615946 -11.6760464485684 0.981878038615945 -11.6760464485684 0.0489586519127644 66.6699268833022 
! Gamma         7.21615653312766 98.156282387927  7.44480068397034 98.5362507319775 
! Port Impedance         50               0                50               0                
3                              0.070668780545596 65.6637894107419 0.97830167620801 -17.4479207713121 0.97830167620801 -17.4479207713121 0.0706582950939282 65.6385167202884 
! Gamma         8.57024684868267 146.725675026489 8.85404907728578 147.193280639742 
! Port Impedance         50               0                50               0                
4                              0.0918528007238198 62.4344846366411 0.974313622530165 -23.210795310778 0.974313622530165 -23.210795310778 0.0918368813361128 62.4024033452746 
! Gamma         9.8636238876185  195.349409729403 10.1773774740175 195.9111631919   
! Port Impedance         50               0                50               0                
5                              0.112077940016356 58.2523682466593 0.969898371200706 -28.9554771584617 0.969898371200706 -28.9554771584617 0.112055862435724 58.2131743445861 
! Gamma         11.1535253952062 243.995817140017 11.48898124586   244.65847676972  
! Port Impedance         50               0                50               0                
6                              0.131048544786768 53.595434223197  0.965120941754203 -34.6756905874021 0.965120941754203 -34.6756905874021 0.131019542013858 53.5490159560376 
! Gamma         12.4564250040173 292.64684798808  12.8111752028958 293.414455268252 
! Port Impedance         50               0                50               0                
7                              0.148542256236445 48.6837993219438 0.960074869065057 -40.3672441571565 0.960074869065057 -40.3672441571565 0.148505612949422 48.6301348040087 
! Gamma         13.7773132389413 341.292253364739 14.1510768247933 342.166892082136 
! Port Impedance         50               0                50               0                
8                              0.164386048481552 43.6324553229282 0.954864859772109 -46.0276682047024 0.954864859772109 -46.0276682047024 0.164341141514932 43.5715708643428 
! Gamma         15.1170379754121 389.925733551506 15.5103379502544 390.908261624817 
! Port Impedance         50               0                50               0                
9                              0.178445887190356 38.5069042647497 0.949597694577048 -51.656027978056 0.949597694577048 -51.656027978056 0.178392207959668 38.4388571585496 
! Gamma         16.4746581296423 438.543210847153 16.8883023673883 439.633718864526 
! Port Impedance         50               0                50               0                
10                             0.190620654647219 33.3466816988384 0.94437610470931 -57.2527736269418 0.94437610470931 -57.2527736269418 0.190557823785204 33.27155291596   
! Gamma         17.8483852670859 487.142018983049 18.2832438048658 488.340105833303 
! Port Impedance         50               0                50               0                
11                             0.200837484965656 28.1765294261761 0.939294310679994 -62.8195827087533 0.939294310679995 -62.8195827087532 0.200765262429601 28.0944208444429 
! Gamma         19.236034612369  535.720479241451 19.6929373175425 537.025422673221 
! Port Impedance         50               0                50               0                
12                             0.209047675832977 23.0122477611076 0.934434804516829 -68.3591860480107 0.934434804516829 -68.3591860480107 0.208965967790445 22.9232817915234 
! Gamma         20.6352723657435 584.277649718112 21.114960401108  585.688517107983 
! Port Impedance         50               0                50               0                
13                             0.215223014140487 17.8640465874384 0.929866163648046 -73.8751801002488 0.929866163648046 -73.8751801002488 0.215131877378321 17.7683674426533 
! Gamma         22.0437639105188 632.81315818473  22.546867702155  634.328882190053 
! Port Impedance         50               0                50               0                
14                             0.219352564851345 12.738639771875  0.925641725811172 -79.3718323702193 0.925641725811172 -79.3718323702193 0.219252209257408 12.6364161066853 
! Gamma         23.4592669124512 681.32707913098  23.9862982269965 682.946511643137 
! Port Impedance         50               0                50               0                
15                             0.221440016094072 7.64068020941518 0.921798963941209 -84.8538862859627 0.921798963941209 -84.8538862859627 0.221330805674873 7.53210918368251 
! Gamma         24.8796898187627 729.819836713073 25.4310420066262 731.541788396762 
! Port Impedance         50               0                50               0                
16                             0.221501655283203 2.57384792855733 0.918359413317858 -90.3263705210785 0.918359413317858 -90.3263705210785 0.22138410814429 2.45916102226953 
! Gamma         26.3031270246918 778.292124726967 26.8790800988107 780.115394703741 
! Port Impedance         50               0                50               0                
17                             0.219565014244751 -2.45822569461204 0.915329026361031 -95.7944161919199 0.915329026361031 -95.7944161919199 0.219439801917026 -2.57875462224497 
! Gamma         27.727877368146  826.744839366274 28.3286059479939 828.6682375506   
! Port Impedance         50               0                50               0                
18                             0.215668184409834 -7.45106989611143 0.912698860341632 -101.263084013406 0.912698860341632 -101.263084013406 0.215536130945209 -7.57711337532359 
! Gamma         29.1524504454233 875.179022452301 29.7780334015107 877.201386311863 
! Port Impedance         50               0                50               0                
19                             0.209859771580886 -12.3984079130423 0.910446035520449 -106.737202722254 0.910446035520449 -106.737202722254 0.209721852916459 -12.5295691142669 
! Gamma         30.5755641439603 923.595813678939 31.2259950469073 925.716020588681 
! Port Impedance         50               0                50               0                
20                             0.202199437934582 -17.2909765921744 0.908534930935251 -112.221219749784 0.908534930935251 -112.221219749784 0.202056782272713 -17.4267668221937 
! Gamma         31.9961359445273 971.996410967672 32.6713337426158 974.213387078254 
! Port Impedance         50               0                50               0                
21                             0.192758967975328 -22.1149356737699 0.906918609107009 -117.719065314171 0.906918609107009 -117.719065314171 0.19261285841785 -22.2547414447395 
! Gamma         33.4132699915614 1020.38203808202 34.1130895410424 1022.69476433848 
! Port Impedance         50               0                50               0                
22                             0.181623802765489 -26.849540859198 0.905540476415573 -123.234031585252 0.905540476415573 -123.234031585252 0.181475684374856 -26.9925743476589 
! Gamma         34.8262415678261 1068.75391864923 35.5504836825421 1071.1614345311  
! Port Impedance         50               0                50               0                
23                             0.168895027104745 -31.4634925719023 0.904336191466552 -128.768669271217 0.904336191466552 -128.768669271217 0.168746522425492 -31.6087144462829 
! Gamma         36.234480187263  1117.11325588593 36.9829010416594 1119.61466129289 
! Port Impedance         50               0                50               0                
24                             0.154691905281671 -35.9088250800108 0.9032358284319  -134.324704694895 0.903235828431899 -134.324704694895 0.15454484601513 -36.0548193732334 
! Gamma         37.6375522629575 1165.46121718723 38.4098720395331 1168.0556728963  
! Port Impedance         50               0                50               0                
25                             0.139155333508503 -40.1099951041134 0.902166286346971 -139.902980972587 0.90216628634697 -139.902980972587 0.139011823783708 -40.254756348216 
! Gamma         39.0351440565709 1213.79892291475 39.8310547389625 1216.48564987451 
! Port Impedance         50               0                50               0                
26                             0.122453253517081 -43.9429762488727 0.901053910101651 -145.503427144559 0.901053910101651 -145.503427144559 0.122315797670369 -44.0835261716666 
! Gamma         40.427045355515  1262.12743865697 41.2462176946904 1264.90571644471 
! Port Impedance         50               0                50               0                
27                             0.104790867748986 -47.1917974354087 0.899827257116074 -151.125058854804 0.899827257116074 -151.125058854804 0.104662638715802 -47.3234468414713 
! Gamma         41.8131342628011 1310.44777037399 42.655223889152  1313.31693496763 
! Port Impedance         50               0                50               0                
28                             0.0864338094021008 -49.4488225095218 0.898419909730977 -156.766013338753 0.898419909730977 -156.766013338753 0.0863192524246345 -49.5636377562638 
! Gamma         43.1933632451168 1358.76086179748 44.0580159697572 1361.72030293474 
! Port Impedance         50               0                50               0                
29                             0.0677705980545779 -49.8566161623901 0.896773202617426 -162.423620042221 0.896773202617426 -162.423620042221 0.0676769318984176 -49.9400022763618 
! Gamma         44.5677465448898 1407.0675937114  45.4546029148502 1410.11675191062 
! Port Impedance         50               0                50               0                
30                             0.0495150117483265 -46.3423633776545 0.89483871296937 -168.0945062084  0.89483871296937 -168.0945062084  0.0494564405282493 -46.3657327837519 
! Gamma         45.9363489888266 1455.36878458474 46.8450481288069 1458.50714802187 
! Port Impedance         50               0                50               0                
31                             0.0335008447918862 -33.2398933061139 0.892580354345658 -173.774734432746 0.892580354345658 -173.774734432746 0.0335104158242652 -33.1609770704015 
! Gamma         47.2992761291556 1503.66519225753 48.2294589572893 1506.89229353482 
! Port Impedance         50               0                50               0                
32                             0.0254191515662299 -0.281517454866263 0.889975926384299 -179.459966726744 0.8899759263843  -179.459966726744 0.0255449712262384 -0.232295782062509 
! Gamma         48.656665681781  1551.95751641149 49.6079775510946 1555.27292935066 
! Port Impedance         50               0                50               0                
33                             0.0320859221018196 34.4844049957333 0.887018003118902 174.854352581143 0.887018003118902 174.854352581143 0.0322620757936486 34.2514501130422 
! Gamma         50.008680141096  1600.24640151406 50.9807729729453 1603.64973798365 
! Port Impedance         50               0                50               0                
34                             0.0473638919840171 49.0817196185067 0.88371408963391 169.172804477351 0.883714089633911 169.172804477351 0.0475248616404197 48.7553814915444 
! Gamma         51.3555004831645 1648.53244013354 52.348034455155  1652.02334699895 
! Port Impedance         50               0                50               0                
35                             0.0649998769031912 53.2249748509278 0.880086034570483 163.499803688036 0.880086034570484 163.499803688036 0.0651393160213738 52.8845321305947 
! Gamma         52.6973208332989 1696.81617639528 53.7099656872555 1700.39433259975 
! Port Impedance         50               0                50               0                
36                             0.0829567990710461 53.1415789381657 0.876168746504594 157.839418109693 0.876168746504594 157.839418109693 0.0830768120977764 52.8014268408862 
! Gamma         54.0343440113789 1745.0981095127  55.0667800230426 1748.76322331675 
! Port Impedance         50               0                50               0                
37                             0.100480568853168 51.1050467693685 0.87200831686406 152.195208481926 0.87200831686406 152.195208481926 0.100583252107762 50.767098437127  
! Gamma         55.3667778257931 1793.37869731977 56.4186964975123 1797.13050368502 
! Port Impedance         50               0                50               0                
38                             0.117184295030748 48.043071806869  0.867659693380045 146.570095753506 0.867659693380046 146.570095753506 0.117271280846089 47.7069493981461 
! Gamma         56.6948320380853 1841.65835965078 57.7659365459346 1845.49661783688 
! Port Impedance         50               0                50               0                
39                             0.132818363109579 44.3921357858074 0.863184071270334 140.966261293989 0.863184071270335 140.966261293989 0.13289104087667 44.0571953949811 
! Gamma         58.0187158932198 1889.93748164338 59.1087213419839 1893.86197295781 
! Port Impedance         50               0                50               0                
40                             0.147200589994811 40.3822129016773 0.858646173028792 135.385082578362 0.858646173028792 135.385082578362 0.147260290449184 40.0479646028048 
! Gamma         59.3386361446529 1938.2164168586  60.4472696527814 1942.22694258486 
! Port Impedance         50               0                50               0                
41                             0.160190530999783 36.1453911644341 0.854111573791389 129.827104537846 0.854111573791388 129.827104537846 0.160238641337274 35.811567348273  
! Gamma         60.6547955015668 1986.49549017326 61.7817961538252 1990.59186969181 
! Port Impedance         50               0                50               0                
42                             0.171678182761929 31.762742118434  0.849644202187872 124.292044713767 0.849644202187872 124.292044713767 0.171716216911869 31.4292892325208 
! Gamma         61.9673914219592 2034.77500055224 63.1125101106584 2038.95706958841 
! Port Impedance         50               0                50               0                
43                             0.181578006388402 27.2866992505733 0.845304112129789 118.778828787186 0.845304112129789 118.778828787186 0.181607649430588 26.9537591599284 
! Gamma         63.2766152058438 2083.05522356087 64.4396143936441 2087.32283261248 
! Port Impedance         50               0                50               0                
44                             0.18982513298275 22.7526835160581 0.841145584878474 113.285652087066 0.841145584878474 113.285652087066 0.189848271278721 22.4205804973277 
! Gamma         64.5826513437001 2131.33641369921 65.7633047487855 2135.68942660057 
! Port Impedance         50               0                50               0                
45                             0.196372587825799 18.1856064903432 0.837215587772694 107.810062263913 0.837215587772694 107.810062263913 0.196391331879559 17.8548431733828 
! Gamma         65.885677063661  2179.61880654146 67.0837693025147 2184.05709917812 
! Port Impedance         50               0                50               0                
46                             0.201189099630009 13.6037723026346 0.833552589508726 102.349058344838 0.833552589508725 102.349058344838 0.201205804213518 13.2750349672036 
! Gamma         67.1858620466125 2227.90262070047 68.4011882381093 2232.42607982968 
! Port Impedance         50               0                50               0                
47                             0.20425734876262 9.02139687873266 0.830185713464112 96.8992017453177 0.830185713464111 96.8992017453177 0.204274633572487 8.6955702265584  
! Gamma         68.4833682884478 2276.18805961068 69.7157336318582 2280.79658180652 
! Port Impedance         50               0                50               0                
48                             0.205572621778979 4.45037734145783 0.827134200479665 91.4567353537792 0.827134200479665 91.4567353537792 0.20559339537779 4.12856944245982 
! Gamma         69.7783500655553 2324.47531313941 71.0275694015455 2329.16880384247 
! Port Impedance         50               0                50               0                
49                             0.205141880194913 -0.0983320386596701 0.824407149844223 86.0177073826113 0.824407149844223 86.0177073826113 0.205169369999436 -0.414753081441675 
! Gamma         71.07095399501   2372.7645590545  72.3368513596794 2377.54293174002 
! Port Impedance         50               0                50               0                
50                             0.202983260969022 -4.61351252765156 0.822003510371024 80.5780972064999 0.822003510371025 80.5780972064999 0.203021052563368 -4.92286756864064 
! Gamma         72.3613191603195 2421.05596435247 73.6437273399852 2425.91913974558 
! Port Impedance         50               0                50               0                
51                             0.199126023887772 -9.08247318954524 0.819912300486217 75.1339407906093 0.819912300486216 75.1339407906093 0.199178114055006 -9.38270260432721 
! Gamma         73.6495772993685 2469.34968644595 74.9483373832947 2474.29759186516 
! Port Impedance         50               0                50               0                
52                             0.19361095748006 -13.4896810649095 0.818113045092933 69.6814535102884 0.818113045092933 69.6814535102884 0.193681827278538 -13.7782509216458 
! Gamma         74.9358530239834 2517.6458742426  76.2508139690281 2522.67844297588 
! Port Impedance         50               0                50               0                
53                             0.186491258100092 -17.8150323126893 0.816576425645316 64.2171481702343 0.816576425645316 64.2171481702343 0.186585975569574 -18.0888075233178 
! Gamma         76.2202640782707 2565.94466909673 77.5512822825025 2571.06183987613 
! Port Impedance         50               0                50               0                
54                             0.17783391623937 -22.0314772798832 0.81526514655084 58.7379458517853 0.81526514655084 58.7379458517853 0.177958283664809 -22.2865496286979 
! Gamma         77.5029216161606 2614.24620568987 78.8498605029471 2619.44792220195 
! Port Impedance         50               0                50               0                
55                             0.167721697192629 -26.1015325435386 0.81413502408614 53.2412769198565 0.81413502408614 53.2412769198565 0.167882466804712 -26.3329871574017 
! Gamma         78.7839304882898 2662.55061279248 80.1466601109832 2667.83682325343 
! Port Impedance         50               0                50               0                
56                             0.156255924146596 -29.9718651460319 0.813136302256711 47.7251691475702 0.813136302256711 47.7251691475702 0.156461121252441 -30.1734651575191 
! Gamma         80.0633895457542 2710.8580139541  81.4417861999483 2716.22867073597 
! Port Impedance         50               0                50               0                
57                             0.143560534844538 -33.5644501099668 0.812215192630331 42.1883195958755 0.812215192630331 42.1883195958755 0.143819953351298 -33.7282213886324 
! Gamma         81.3413919374481 2759.16852812538 82.735337798418  2764.62358742268 
! Port Impedance         50               0                50               0                
58                             0.129788457484628 -36.7614098254553 0.811315622052687 36.6301466881645 0.811315622052687 36.6301466881644 0.130114437398246 -36.8771358409569 
! Gamma         82.6180254146667 2807.48227021025 84.0274081867517 2813.0216917348  
! Port Impedance         50               0                50               0                
59                             0.115132649268514 -39.3777000547344 0.810381153974292 31.0508189940565 0.810381153974293 31.0508189940565 0.115541319651797 -39.432462214456 
! Gamma         83.8933726275916 2855.79935154116 85.3180852103541 2861.42309827222 
! Port Impedance         50               0                50               0                
60                             0.0998472240176502 -41.1093996180895 0.809357027600627 25.4512576371129 0.809357027600628 25.4512576371129 0.100360497042168 -41.087776478172 
! Gamma         85.1675114153813 2904.1198803316  86.6074515924767 2909.82791827661 
! Port Impedance         50               0                50               0                
61                             0.0842918332960353 -41.4315642512376 0.808192236822446 19.833110072371  0.808192236822447 19.833110072371  0.0849404529845386 -41.3188806364922 
! Gamma         86.4405150893867 2952.44396204561 87.895585229269  2958.2362600434  
! Port Impedance         50               0                50               0                
62                             0.0690325028357425 -39.3948611885314 0.806841551290665 14.1986942240504 0.806841551290664 14.1986942240504 0.069859586321448 -39.1924363660332 
! Gamma         87.7124527092939 3000.77169975123 89.1825594842409 3006.64822929542 
! Port Impedance         50               0                50               0                
63                             0.0550793079136545 -33.2756546604453 0.805267368784003 8.55091358801632 0.805267368784003 8.55091358801632 0.0561376786083289 -33.0584643742472 
! Gamma         88.9833893429958 3049.10319442177 90.4684434662358 3055.06392949299 
! Port Impedance         50               0                50               0                
64                             0.0443755697442678 -20.4943808117232 0.803441284509034 2.8931457666793  0.803441284509034 2.8931457666793  0.0456851950683097 -20.5659619057969 
! Gamma         90.2533863209741 3097.43854519583 91.7533022965086 3103.48346213953 
! Port Impedance         50               0                50               0                
65                             0.04005703411851 -0.485974901519668 0.801345271454371 -2.77089119080493 0.801345271454371 -2.77089119080493 0.0414716891055725 -1.38522114143734 
! Gamma         91.5225014747002 3145.77784962296 93.0371973665918 3151.90692701513 
! Port Impedance         50               0                50               0                
66                             0.0440947681553326 19.5747939599364 0.798972386893683 -8.43728852910066 0.798972386893683 -8.43728852910066 0.0453216988663367 17.8858411092943 
! Gamma         92.7907893677558 3194.12120386912 94.3201865790568 3200.33442241927 
! Port Impedance         50               0                50               0                
67                             0.0544493135141081 32.4485324305296 0.796326952012756 -14.1021051689383 0.796326952012757 -14.1021051689383 0.0553689002629806 30.5349318596636 
! Gamma         94.0583015115586 3242.46870289374 95.602324581281  3248.76604534981 
! Port Impedance         50               0                50               0                
68                             0.0679334719570301 38.6505447762715 0.793424190816292 -19.7615265478974 0.793424190816292 -19.7615265478973 0.0685867979376479 36.7972993508833 
! Gamma         95.3250865711756 3290.82044061478 96.8836629810434 3297.2018916922  
! Port Impedance         50               0                50               0                
69                             0.0825838396117211 40.7636428671119 0.790289355932848 -25.4120156976058 0.790289355932848 -25.4120156976058 0.0830332814984455 39.0262329342299 
! Gamma         96.5911905569415 3339.17651005612 98.1642505549577 3345.64205635446 
! Port Impedance         50               0                50               0                
70                             0.097390320527029 40.5210488502825 0.786956407181828 -31.0504490022546 0.786956407181828 -31.0504490022546 0.0976820995012156 38.8885468373608 
! Gamma         97.8566570119148 3387.53700345878 99.4441334421108 3394.08663340982 
! Port Impedance         50               0                50               0                
71                             0.111796583160547 38.8783212245475 0.783466338904394 -36.6742303635292 0.783466338904394 -36.6742303635291 0.111961588065788 37.3287290698538 
! Gamma         99.1215271779477 3435.9020123988  100.723355328039 3442.53571620836 
! Port Impedance         50               0                50               0                
72                             0.125458018887381 36.3642913840528 0.779865270727345 -42.2813792076637 0.779865270727344 -42.2813792076637 0.12551695691339 34.8775496479348 
! Gamma         100.385840161317 3484.27162787052 102.001957614109 3490.98939748039 
! Port Impedance         50               0                50               0                
73                             0.138139187038882 33.2856931891843 0.776202422312714 -47.8705896982707 0.776202422312713 -47.8705896982708 0.138106352141105 31.8456714990704 
! Gamma         101.649633081673 3532.6459403773  103.279979581708 3539.44776941802 
! Port Impedance         50               0                50               0                
74                             0.14966865766879 29.8299899934654 0.772528086536332 -53.4412604246752 0.772528086536332 -53.4412604246752 0.149554259422879 28.4240222575392 
! Gamma         102.912941212976 3581.02503999726 104.557458539517 3587.91092375968 
! Port Impedance         50               0                50               0                
75                             0.159917458004634 26.1174328106009 0.768891699914978 -58.9934955299662 0.768891699914979 -58.9934955299661 0.159729025983953 24.7354973049374 
! Gamma         104.175798118206 3629.40901643978 105.83442996878  3636.37895184497 
! Port Impedance         50               0                50               0                
76                             0.168787756476937 22.2285696662189 0.76534008743578 -64.5280795885668 0.765340087435779 -64.5280795885668 0.168530994644973 20.8625762773176 
! Gamma         105.438235770583 3677.79795911132 107.110927650758 3684.85194467766 
! Port Impedance         50               0                50               0                
77                             0.176206284156577 18.2195371901568 0.761915934954265 -70.0464294689007 0.761915934954265 -70.0464294689007 0.175885597779848 16.8627823815151 
! Gamma         106.700284669393 3726.19195713674 108.386983793131 3733.32999297037 
! Port Impedance         50               0                50               0                
78                             0.182120118964477 14.131012143899  0.758656519326728 -75.5505269350891 0.758656519326728 -75.5505269350891 0.181738941503463 12.7777738543213 
! Gamma         107.961973949283 3774.59109942359 109.662629141639 3781.81318718922 
! Port Impedance         50               0                50               0                
79                             0.186493769796183 9.99373704374547 0.755592706870584 -81.042835888951 0.755592706870583 -81.042835888951 0.186054762973241 8.63897124831143 
! Gamma         109.22333147642  3822.99547466998 110.937893088937 3830.30161757659 
! Port Impedance         50               0                50               0                
80                             0.189307076639867 5.83213389693725 0.752748216079534 -86.5262080353985 0.752748216079533 -86.5262080353985 0.188812246063279 4.47124104246997 
! Gamma         110.484383944999 3871.40517141058 112.212803772863 3878.79537420158 
! Port Impedance         50               0                50               0                
81                             0.190553707580949 1.66683408566981 0.750139131195646 -92.0037804552335 0.750139131195646 -92.0037804552335 0.190004458313177 0.295471682134407 
! Gamma         111.745156961705 3919.82027802507 113.487388168972 3927.29454695895 
! Port Impedance         50               0                50               0                
82                             0.190240156739936 -2.48339384137371 0.747773648950717 -97.4788682053696 0.747773648950717 -97.4788682053696 0.189637302125232 -3.86946982649305 
! Gamma         113.005675127454 3968.2408827638  114.761672175312 3975.79922560977 
! Port Impedance         50               0                50               0                
83                             0.188385204790882 -6.60001248248645 0.745652040605785 -102.954854703345 0.745652040605785 -102.954854703345 0.187728934479963 -8.00509031260063 
! Gamma         114.265962110498 4016.66707376141 116.035680693155 4024.30949978467 
! Port Impedance         50               0                50               0                