! Touchstone file exported from HFSS 2024.2.0
!        File:           C:/Users/vaintrug/Documents/Ansoft_Workspace/Comparaison_Calculs_HFSS/1_VarPort.aedt
!        Generated:      03:22:16 PM Jan 21, 2025
!        Design:         1_NoDeembed_FacePortFree
!        Project:        1_VarPort
!        Setup:          Setup1
!        Solution:       Sweep
!
! Variables:
!        $Lenght = 1500um
!        $PortSize = 290um
!        Gap = 30um
!        Th = 2um
!        X_centralStrip = 20um
!        X_masse = 200um
!        Y_Sub = 1.5mm
!        Z_Box = 400um
!        Z_Sub = 200um
!
# GHz S MA R 50.000000
! Terminal data exported
! Port[1] = 1
! Port[2] = 2
1                              0.0204545615527445 62.1418179628785 0.98905258239331 -4.42518375685068 0.98905258239331 -4.42518375685068 0.0204541366882328 62.1372754326896 
! Gamma         6.18685058161881 50.2713091579622 6.11183819425643 50.1293340347241 
! Port Impedance         50               0                50               0                
2                              0.0363877130522183 69.3213233926681 0.986531688716767 -8.7482707538813 0.986531688716767 -8.7482707538813 0.0363860219008575 69.3151291269841 
! Gamma         8.08952654121616 98.9582625024739 7.98717725645993 98.7455946071715 
! Port Impedance         50               0                50               0                
3                              0.0527043787858888 69.8072231633625 0.984072433516442 -13.0758310957793 0.984072433516441 -13.0758310957793 0.052701670713569 69.7988474369975 
! Gamma         9.56683948927338 147.669183860667 9.45696820088797 147.374740645633 
! Port Impedance         50               0                50               0                
4                              0.0689104298467992 68.040744331118  0.981370557865747 -17.4019721960252 0.981370557865746 -17.4019721960253 0.0689066562193684 68.0297514410058 
! Gamma         10.9334277705949 196.457167006345 10.8180097168253 196.075191105023 
! Port Impedance         50               0                50               0                
5                              0.084743324809948 65.2843613847134 0.978381441254626 -21.72110921988  0.978381441254625 -21.72110921988  0.0847382979207048 65.2705370531933 
! Gamma         12.282315229273  245.284966623376 12.1608940828081 244.813374978952 
! Port Impedance         50               0                50               0                
6                              0.100037181548121 62.0218148166964 0.975118049169418 -26.029392775807 0.975118049169418 -26.029392775807 0.100030667849803 62.005029275478  
! Gamma         13.6422109684696 294.126437442008 13.5140529049373 293.56457648849  
! Port Impedance         50               0                50               0                
7                              0.114669240604959 58.4757132626893 0.971612854925999 -30.3240065104155 0.971612854925999 -30.3240065104155 0.114660998991256 58.4558599666973 
! Gamma         15.0222370162414 342.966013243881 14.8866621278679 342.313841887217 
! Port Impedance         50               0                50               0                
8                              0.128541335073593 54.7623682778895 0.967907203790987 -34.6028618724471 0.967907203790987 -34.6028618724471 0.128531132503487 54.7393387913868 
! Gamma         16.4244706814597 391.794192123659 16.2809030501732 391.05196796761  
! Port Impedance         50               0                50               0                
9                              0.141572636349899 50.9483713227998 0.964046860751794 -38.864471518237 0.964046860751793 -38.864471518237 0.141560254744158 50.9220441433991 
! Gamma         17.8480833929084 440.604988951331 17.696052188328  439.773129472884 
! Port Impedance         50               0                50               0                
10                             0.15369627754208 47.0744807661731 0.960079417807353 -43.107885572801 0.960079417807353 -43.107885572801 0.153681517020594 47.0447154887378 
! Gamma         19.2909493281428 489.394617976166 19.1300818698853 488.473629761897 
! Port Impedance         50               0                50               0                
11                             0.164857400706405 43.16687765217   0.956052456511188 -47.3326474322431 0.956052456511188 -47.3326474322431 0.164840080906271 43.1335110881497 
! Gamma         20.7503713301715 538.160779380658 20.5803844541843 537.15121685673  
! Port Impedance         50               0                50               0                
12                             0.175011748373719 39.2429531855379 0.952012135517799 -51.5387533634243 0.9520121355178  -51.5387533634243 0.174991708433165 39.2057961121907 
! Gamma         22.2234514024945 586.902239330528 22.0441428913905 585.804678330099 
! Port Impedance         50               0                50               0                
13                             0.184124474267263 35.3145079644396 0.948002087732564 -55.7266107652912 0.948002087732565 -55.7266107652913 0.18410157169341 35.273341942968  
! Gamma         23.7072992662156 635.618558574428 23.5185387619233 634.433578537595 
! Port Impedance         50               0                50               0                
14                             0.192169060496464 31.389634624982  0.944062574209009 -59.8969940845823 0.944062574209009 -59.8969940845823 0.192143169023677 31.3442085740893 
! Gamma         25.199155117715  684.309901459755 25.0008754569836 683.038073059492 
! Port Impedance         50               0                50               0                
15                             0.199126312272556 27.473889575821  0.940229859134148 -64.0509989423081 0.94022985913415 -64.0509989423082 0.19909731879568 27.4239158977194 
! Gamma         26.6964633484992 732.976892212079 26.4886516912978 731.618768397631 
! Port Impedance         50               0                50               0                
16                             0.204983432837149 23.5710610659323 0.936535774225123 -68.189995488397 0.936535774225123 -68.189995488397 0.204951233499038 23.5162111910945 
! Gamma         28.1969137044075 781.620500543317 27.9796032152906 780.176610880408 
! Port Impedance         50               0                50               0                
17                             0.209733190751357 19.6836981907391 0.933007442017066 -72.3155819952803 0.933007442017064 -72.3155819952803 0.20969768625374 19.6235973297556 
! Gamma         29.6984609755682 830.241949413377 29.4717228436988 828.712796417666 
! Port Impedance         50               0                50               0                
18                             0.213373192240176 15.8134934368822 0.929667128993862 -76.4295394711369 0.929667128993862 -76.4295394711369 0.213334282428966 15.7477143588369 
! Gamma         31.1993290663349 878.842639387383 30.9632653663805 877.228696386939 
! Port Impedance         50               0                50               0                
19                             0.215905267508369 11.9615734575642 0.926532202251907 -80.5337878600289 0.926532202251908 -80.5337878600289 0.215862845248335 11.8896290276629 
! Gamma         32.6980047565557 927.424086267168 32.4527418424422 925.72579688089  
! Port Impedance         50               0                50               0                
20                             0.217334976077107 8.1287321240188  0.923615166905264 -84.6303441351794 0.923615166905265 -84.6303441351794 0.217288920382935 8.05006625855053 
! Gamma         34.1932240834652 975.987870737166 33.9389066648128 974.205649171778 
! Port Impedance         50               0                50               0                
21                             0.217671231802594 4.31562837421356 0.920923765666301 -88.721282436415 0.920923765666301 -88.721282436415 0.217621400145291 4.22960503587023 
! Gamma         35.6839536921051 1024.53559802583 35.4207399593796 1022.66983009047 
! Port Impedance         50               0                50               0                
22                             0.216926045106141 0.522965168391417 0.918461126282091 -92.8086962679489 0.91846112628209 -92.8086962679489 0.216872264718436 0.428854791078862 
! Gamma         37.1693700237913 1073.06886606178 36.8974272340119 1071.11991072066 
! Port Impedance         50               0                50               0                
23                             0.215114377258818 -3.24833739819469 0.916225946635152 -96.8946626978111 0.916225946635152 -96.8946626978111 0.215056435189804 -3.35137473390134 
! Gamma         38.6488369321622 1121.58924100183 38.3683377969517 1119.55743241686 
! Port Impedance         50               0                50               0                
24                             0.212254099540361 -6.99696269278005 0.914212711069933 -100.981208492357 0.914212711069934 -100.981208492357 0.212191731067747 -7.10989834289601 
! Gamma         40.1218832657911 1170.09823930798 39.833003020075  1167.98388884981 
! Port Impedance         50               0                50               0                
25                             0.208366048843013 -10.7209989433587 0.912411934669472 -105.070278121903 0.912411934669472 -105.070278121903 0.208298923689583 -10.8449623809015 
! Gamma         41.5881813393906 1218.59731486945 41.291095221975  1216.4007133174  
! Port Impedance         50               0                50               0                
26                             0.20347417035519 -14.4177057877744 0.910810434809689 -109.16370362265 0.910810434809688 -109.16370362265 0.203401875923559 -14.5540187087671 
! Gamma         43.0475262469645 1267.08785025588 42.7424077244359 1264.8092701043  
! Port Impedance         50               0                50               0                
27                             0.19760573769856 -18.0832250513847 0.909391631239199 -113.263176369381 0.909391631239199 -113.263176369381 0.197527758193833 -18.2334455092169 
! Gamma         44.499817271466  1315.57115185159 44.1868363911928 1313.21084936104 
! Port Impedance         50               0                50               0                
28                             0.190791641501956 -21.7122058660095 0.908135877147572 -117.37022088614 0.908135877147572 -117.37022088614 0.190707331312399 -21.8781861100526 
! Gamma         45.9450404180235 1364.04844727473 45.6243628463792 1361.60666470652 
! Port Impedance         50               0                50               0                
29                             0.183066739008293 -25.2972991985131 0.907020824269732 -121.486170917457 0.907020824269732 -121.486170917457 0.182975287935032 -25.4812625969494 
! Gamma         47.3832533246874 1412.52088543457 47.0550394542322 1409.99785284078 
! Port Impedance         50               0                50               0                
30                             0.174470261599648 -28.8284516753983 0.906021824851831 -125.612148055921 0.906021824851831 -125.612148055921 0.174370648341835 -29.0330965765926 
! Gamma         48.8145715666027 1460.98953770085 48.4789760199998 1458.38547486507 
! Port Impedance         50               0                50               0                
31                             0.165046284998254 -32.2918852263875 0.905112372501653 -129.749043307716 0.905112372501653 -129.749043307716 0.164937213316875 -32.5205277276008 
! Gamma         50.239156922502  1509.45540065504 49.8963281740512 1506.77051872721 
! Port Impedance         50               0                50               0                
32                             0.154844282536674 -35.6685727875152 0.904264582398746 -133.897502034878 0.904264582398746 -133.897502034878 0.154724091305771 -35.9253467379255 
! Gamma         51.6572070609868 1557.91939950737 51.307287312641  1555.15390249036 
! Port Impedance         50               0                50               0                
33                             0.1439198115093  -38.9318807049332 0.903449709252614 -138.057912752321 0.903449709252614 -138.057912752321 0.143786344275534 -39.222023828026 
! Gamma         53.068946840694  1606.38239204657 52.7120719861139 1603.53647821205 
! Port Impedance         50               0                50               0                
34                             0.132335440667676 -42.043782852405 0.902638698786209 -142.230400266608 0.902638698786208 -142.230400266608 0.132185850392575 -42.3740554639777 
! Gamma         54.4746209132432 1654.84517293648 54.1109205795623 1651.91903610322 
! Port Impedance         50               0                50               0                
35                             0.120162144451024 -44.9485215475535 0.901802765588964 -146.414823617709 0.901802765588963 -146.414823617709 0.119992590688019 -45.3278337917722 
! Gamma         55.8744874138467 1703.30847831857 55.5040851684779 1700.30230888091 
! Port Impedance         50               0                50               0                
36                             0.107481640798734 -47.5614739823292 0.900913987106323 -150.610779225931 0.900913987106323 -150.610779225931 0.107286800718524 -48.001846587521 
! Gamma         57.268812847203  1751.77299019251 56.8918263921632 1748.68697615327 
! Port Impedance         50               0                50               0                
37                             0.0943907232531222 -49.7484817271751 0.899945900560883 -154.817609530282 0.899945900560884 -154.817609530282 0.0941629650470919 -50.266539687156 
! Gamma         58.6578678223548 1800.23934086775 58.2744092293981 1797.07366872027 
! Port Impedance         50               0                50               0                
38                             0.0810100598628423 -51.2848923184058 0.898874087007184 -159.034417274077 0.898874087007183 -159.034417274077 0.0807379715306067 -51.904162438353 
! Gamma         60.041923545522  1848.70811726845 59.6520995562564 1845.46297275845 
! Port Impedance         50               0                50               0                
39                             0.0675038067657385 -51.768014635311 0.897676724786141 -163.260085404353 0.897676724786141 -163.260085404353 0.0671694319945357 -52.5220966404831 
! Gamma         61.4212489926844 1897.17986503192 61.0251613704125 1893.85543380642 
! Port Impedance         50               0                50               0                
40                             0.0541281569177166 -50.4138131523095 0.896335093634409 -167.493302353011 0.896335093634408 -167.493302353011 0.0537015830377348 -51.3482252234192 
! Gamma         62.7961088642306 1945.65509229014 62.3938545908431 1942.25156054438 
! Port Impedance         50               0                50               0                
41                             0.0413666414451943 -45.5528496418709 0.89483401080392 -171.732592248076 0.89483401080392 -171.732592248076 0.0407959023900465 -46.7073157653146 
! Gamma         64.1667616143578 1994.13427336136 63.7584333442105 1990.65182831649 
! Port Impedance         50               0                50               0                
42                             0.030343554758153 -33.4996434174772 0.893162181900816 -175.976349387415 0.893162181900815 -175.976349387415 0.0295470548263949 -34.7535190905407 
! Gamma         65.5334583766321 2042.61785202587 65.1191446586557 2039.05668243004 
! Port Impedance         50               0                50               0                
43                             0.0238436327642994 -8.80085144045047 0.891312451734888 179.777123898978 0.891312451734887 179.777123898978 0.0228059479777458 -9.26798232797412 
! Gamma         66.8964418870851 2091.10624471307 66.4762275026936 2087.46654118835 
! Port Impedance         50               0                50               0                
44                             0.0255832677436467 21.7409163826376 0.889281944206714 175.529577030998 0.889281944206714 175.529577030998 0.024607228912686 22.7744516018005 
! Gamma         68.2559458694159 2139.59984324429 67.8299121069039 2135.88179868929 
! Port Impedance         50               0                50               0                
45                             0.0341842425886167 40.8003599092795 0.887072084864208 171.282769770825 0.887072084864209 171.282769770825 0.0334535356345497 42.1796465411825 
! Gamma         69.6121945707107 2188.09901754228 69.1804195224366 2184.30282738821 
! Port Impedance         50               0                50               0                
46                             0.0457259929863955 49.2761785095743 0.884688504941053 167.038430852151 0.884688504941053 167.038430852151 0.0451793430737509 50.49234132638   
! Gamma         70.9654025057441 2236.60411793239 70.5279613693805 2232.72998044116 
! Port Impedance         50               0                50               0                
47                             0.0582454032474068 52.4280136167972 0.882140831015929 162.798217873328 0.882140831015929 162.798217873328 0.0578165169578125 53.45012316144   
! Gamma         72.3157744822865 2285.11547735657 71.8727397451735 2281.16359382233 
! Port Impedance         50               0                50               0                
48                             0.0709682966344229 52.9330093814844 0.879442369492443 158.563679629138 0.879442369492442 158.563679629138 0.0706175865357972 53.8013588857574 
! Gamma         73.6635055146455 2333.63341329646 73.2149472530114 2329.60398825846 
! Port Impedance         50               0                50               0                
49                             0.083538613171966 52.0020528652617 0.876609699502303 154.336221932554 0.876609699502303 154.336221932554 0.083242958505671 52.7538182928781 
! Gamma         75.0087810523123 2382.15822955816 74.5547671329784 2378.0514709745  
! Port Impedance         50               0                50               0                
50                             0.0957564196026962 50.2249201290413 0.87366219126801 150.117077811155 0.873662191268009 150.117077811155 0.0955016673541466 50.8871583938162 
! Gamma         76.3517771614005 2430.69021789605 75.8923734693696 2426.50633727659 
! Port Impedance         50               0                50               0                
51                             0.107489889522331 47.9157479874575 0.870621469199689 145.907282766883 0.87062146919969 145.907282766883 0.107266926836605 48.5075681860372 
! Gamma         77.6926608164098 2479.22965938052 77.2279314570723 2474.9688719572  
! Port Impedance         50               0                50               0                
52                             0.118642064513199 45.2553199092938 0.867510839985536 141.707655563401 0.867510839985536 141.707655563401 0.118444765858624 45.7903595383283 
! Gamma         79.0315902746523 2527.77682580431 78.561597712538  2523.43935059732 
! Port Impedance         50               0                50               0                
53                             0.129136743978615 42.3544820304954 0.864354705673355 137.518784783067 0.864354705673354 137.518784783067 0.128960846897852 42.8426642745734 
! Gamma         80.3687153132332 2576.33198072108 79.8935206141109 2571.91804069739 
! Port Impedance         50               0                50               0                
54                             0.13891184419664 39.2847974054042 0.8611779804199  133.341021183126 0.8611779804199  133.341021183125 0.138754300499509 39.7334864755549 
! Gamma         81.7041777485107 2624.89538060802 81.2238406679195 2620.40520271896 
! Port Impedance         50               0                50               0                
55                             0.147915958386165 36.0944634339312 0.858005527380207 129.174475690738 0.858005527380207 129.174475690738 0.147774541025438 36.5092197595632 
! Gamma         83.0381116981138 2673.46727571678 82.5526908824459 2668.90109100952 
! Port Impedance         50               0                50               0                
56                             0.156106393141271 32.8170999350719 0.854861629445724 125.019022718841 0.854861629445723 125.019022718841 0.155979447395266 33.2021807323502 
! Gamma         84.3706440495568 2722.04791097517 83.8801971521848 2717.40595463923 
! Port Impedance         50               0                50               0                
57                             0.163447927454026 29.4768640156716 0.851769504462282 120.87430836023  0.851769504462282 120.87430836023  0.163334207188495 29.8355615476524 
! Gamma         85.7018948397591 2770.63752667333 85.2064786386188 2765.92003813435 
! Port Impedance         50               0                50               0                
58                             0.169911945369725 26.0915680437136 0.848750872449479 116.739762938359 0.848750872449479 116.739762938359 0.16981050139193 26.4264426622505 
! Gamma         87.0319776373126 2819.2363591897  86.5316481536185 2814.44358215257 
! Port Impedance         50               0                50               0                
59                             0.175475774932017 22.674661448278  0.845825579423718 112.614617337994 0.845825579423718 112.614617337994 0.175385876267279 22.9877049280687 
! Gamma         88.3609999023932 2867.8446415854  87.8558125310994 2862.9768240686  
! Port Impedance         50               0                50               0                
60                             0.180122152287985 19.2365408904798 0.843011279869063 108.497922529491 0.843011279869063 108.497922529491 0.18004322880047 19.529292448148  
! Gamma         89.6890634196561 2916.46260410206 89.1790729898158 2911.51999852916 
! Port Impedance         50               0                50               0                
61                             0.183838772521093 15.7854508353757 0.840323177806105 104.388571701867 0.840323177806105 104.388571701867 0.183770371620934 16.0590801954603 
! Gamma         91.0162645989715 2965.09047467964 90.5015254873642 2960.07333790796 
! Port Impedance         50               0                50               0                
62                             0.186617910216948 12.3281284407081 0.837773824847926 100.285324456032 0.837773824847926 100.285324456032 0.186559662937839 12.5834952954514 
! Gamma         92.3426948195871 3013.72847940826 91.8232610587567 3008.63707274946 
! Port Impedance         50               0                50               0                
63                             0.188456103529508 8.87028680374945 0.835372972592324 96.1868325416488 0.835372972592323 96.1868325416488 0.188407696783627 9.10798282076958 
! Gamma         93.6684408716138 3062.3768428308  93.144366144071  3057.21143214645 
! Port Impedance         50               0                50               0                
64                             0.189353900560213 5.41699656037546 0.83312747614928 92.091666672492  0.833127476149279 92.091666672492  0.189315053315884 5.63737396149334 
! Gamma         94.9935850729834 3111.03578841442 94.4649228990168 3105.79664409164 
! Port Impedance         50               0                50               0                
65                             0.18931566891724 1.97300616629656 0.83104124547433 87.9983439993092 0.83104124547433 87.9983439993092 0.189286110604267 2.17619547039328 
! Gamma         96.3182057975283 3159.70553872893 95.7850094918358 3154.39293578245 
! Port Impedance         50               0                50               0                
66                             0.188349469731275 -1.45696996477308 0.829115241390706 83.9053558591884 0.829115241390706 83.9053558591884 0.188328919504145 -1.27105150299262 
! Gamma         97.6423775782234 3208.38631581131 97.1047003879458 3203.00053389916 
! Port Impedance         50               0                50               0                
67                             0.186466997121949 -4.8679721022539 0.827347513622685 79.8111954532767 0.827347513622684 79.8111954532767 0.186455142763914 -4.69962063311998 
! Gamma         98.9661714901866 3257.07834138944 98.4240666167314 3251.6196648579  
! Port Impedance         50               0                50               0                
68                             0.183683583607215 -8.25450323563598 0.825733278736152 75.7143851306918 0.825733278736152 75.7143851306918 0.183680058872648 -8.10423703189485 
! Gamma         100.289655374112 3305.78183715175 99.7431760248275 3300.2505550427  
! Port Impedance         50               0                50               0                
69                             0.180018271586799 -11.6102018995296 0.824265036504644 71.6135029620747 0.824265036504644 71.6135029620747 0.18002263065601 -11.4787793540041 
! Gamma         101.61289407562  3354.4970248499  101.062093517476 3348.89343100697 
! Port Impedance         50               0                50               0                
70                             0.175493951401896 -14.9274525540905 0.82293272375433 67.5072082931492 0.82293272375433 67.5072082931492 0.175505638861852 -14.8159009476306 
! Gamma         102.935949675809 3403.22412660457 102.380881283224 3397.54851966105 
! Port Impedance         50               0                50               0                
71                             0.170137567924113 -18.1968973415222 0.821723905149262 63.3942659547904 0.821723905149262 63.3942659547904 0.170155882209729 -18.1065548730014 
! Gamma         104.258881712582 3451.96336500087 103.699599008361 3446.21604844616 
! Port Impedance         50               0                50               0                
72                             0.163980401031126 -21.4067978008838 0.820624000558661 59.2735687943426 0.820624000558661 59.2735687943425 0.164004448516145 -21.3393727028124 
! Gamma         105.581747382869 3500.71496325364 105.018304076147 3494.89624549403 
! Port Impedance         50               0                50               0                
73                             0.157058432108783 -24.5421699666634 0.819616548537384 55.1441581703344 0.819616548537384 55.1441581703344 0.157087067839131 -24.4998224194585 
! Gamma         106.904601744168 3549.47914540323 106.337051757489 3543.58933976202 
! Port Impedance         50               0                50               0                
74                             0.149412820987931 -27.5835746738106 0.818683505035892 51.0052420393087 0.818683505035892 51.0052420393086 0.149444570155344 -27.5690299888162 
! Gamma         108.22749785497  3598.2561363571  107.655895386704 3592.29556117811 
! Port Impedance         50               0                50               0                
75                             0.141090539819855 -30.5053751104219 0.817805575695911 46.8562102438886 0.817805575695912 46.8562102438886 0.141123491017487 -30.522080719682 
! Gamma         109.550487016574 3647.04616212962 108.974886529201 3641.01514076495 
! Port Impedance         50               0                50               0                
76                             0.132145250051487 -33.2731539584866 0.816962578998468 42.696646614778  0.816962578998469 42.6966466147781 0.132176906338115 -33.3254987873719 
! Gamma         110.87361884438  3695.84944983732 110.294075137549 3689.74831075151 
! Port Impedance         50               0                50               0                
77                             0.122638581022596 -35.83977195     0.816133836165743 38.5263375084538 0.816133836165744 38.5263375084538 0.1226656463589  -35.9333955061441 
! Gamma         112.196941500522 3744.66622790907 111.613509698146 3738.49530469547 
! Port Impedance         50               0                50               0                
78                             0.112642104469877 -38.1391694736015 0.815298582134289 34.3452764343403 0.815298582134288 34.3452764343403 0.112660168598412 -38.2813997267914 
! Gamma         113.520501734487 3793.49672610662 112.933237370042 3787.25635757086 
! Port Impedance         50               0                50               0                
79                             0.102240562884573 -40.0763087243333 0.814436390232211 30.153664481944  0.814436390232211 30.153664481944  0.102243622298228 -40.27678011089  
! Gamma         114.844345146814 3842.34117572929 114.253304113638 3836.03170589927 
! Port Impedance         50               0                50               0                
80                             0.0915374420154546 -41.5103262962763 0.813527601532555 25.9519063342144 0.813527601532555 25.9519063342144 0.0915171499629104 -41.7818271756284 
! Gamma         116.168516155685 3891.19980958146 115.573754813003 3884.82158781101 
! Port Impedance         50               0                50               0                
81                             0.0806650955346578 -42.2254695746846 0.81255374838064 21.7406017606522 0.81255374838064 21.7406017606522 0.0806095574163813 -42.5849910438099 
! Gamma         117.493058265468 3940.07286217272 116.894633389376 3933.62624317497 
! Port Impedance         50               0                50               0                
82                             0.0698040484587696 -41.8799907817585 0.811497960457037 17.5205326051451 0.811497960457037 17.5205326051451 0.069695864521932 -42.349559789829 
! Gamma         118.818014049422 3988.96056975346 118.215982909777 3982.44591367313 
! Port Impedance         50               0                50               0                
83                             0.0592213235586919 -39.9175752235024 0.810345341100201 13.2926454261523 0.810345341100202 13.2926454261523 0.0590345085982314 -40.5228789925667 
! Gamma         120.143425335518 4037.86317044136 119.537845686832 4031.28084289799 
! Port Impedance         50               0                50               0                