! Touchstone file exported from HFSS 2024.2.0
!        File:           C:/Users/vaintrug/Documents/Ansoft_Workspace/Comparaison_Calculs_HFSS/1_VarPort.aedt
!        Generated:      03:22:18 PM Jan 21, 2025
!        Design:         1_NoDeembed_FacePortFree
!        Project:        1_VarPort
!        Setup:          Setup1
!        Solution:       Sweep
!
! Variables:
!        $Lenght = 2000um
!        $PortSize = 100um
!        Gap = 30um
!        Th = 2um
!        X_centralStrip = 20um
!        X_masse = 200um
!        Y_Sub = 2mm
!        Z_Box = 400um
!        Z_Sub = 200um
!
# GHz S MA R 50.000000
! Terminal data exported
! Port[1] = 1
! Port[2] = 2
1                              0.0273532842177091 60.9721379422098 0.985427120627939 -5.90248805001018 0.985427120627939 -5.90248805001018 0.0273485807335098 60.9763791047272 
! Gamma         5.75934861499492 50.0241537677474 5.71920780751118 49.9948924540211 
! Port Impedance         50               0                50               0                
2                              0.0486525037501564 66.6115624655956 0.981894655168313 -11.6697568069676 0.981894655168313 -11.6697568069676 0.0486418117819327 66.633504334003  
! Gamma         7.56538339965847 98.7173113691259 7.47601881047561 98.7180908196493 
! Port Impedance         50               0                50               0                
3                              0.0701911766848373 65.5971850804105 0.978323865202004 -17.4379560185359 0.978323865202004 -17.4379560185359 0.0701774181883442 65.6340544260739 
! Gamma         9.01086200256812 147.414554317811 8.9001951949764  147.461863286595 
! Port Impedance         50               0                50               0                
4                              0.0912162751036575 62.375060910687  0.974352767251888 -23.1973429407632 0.974352767251888 -23.1973429407632 0.0912008649763872 62.4257128416918 
! Gamma         10.359969531292  196.168246738515 10.240634256529  196.25896740769  
! Port Impedance         50               0                50               0                
5                              0.111294325496905 58.1956262184393 0.969961481279926 -28.9388995599624 0.969961481279925 -28.9388995599624 0.111278182802738 58.2599438210423 
! Gamma         11.6915145281218 244.951768499826 11.5677892294121 245.082047195021 
! Port Impedance         50               0                50               0                
6                              0.130131720257538 53.5378455567269 0.96521223484676 -34.6564080340995 0.96521223484676 -34.6564080340995 0.130115618038718 53.616146494604  
! Gamma         13.0312172842419 293.744985069654 12.9042849124962 293.912329384381 
! Port Impedance         50               0                50               0                
7                              0.147507439470667 48.622646451313  0.960196372463485 -40.3457004068242 0.960196372463485 -40.3457004068242 0.147492117249204 48.7154914907656 
! Gamma         14.3879040042621 342.535276582433 14.2578393271493 342.738300814287 
! Port Impedance         50               0                50               0                
8                              0.1632493881387  43.5655477762607 0.955016697892475 -46.0043081547224 0.955016697892475 -46.0043081547224 0.163235603179583 43.6736824863319 
! Gamma         15.7640089809468 391.314612000486 15.6305121328486 391.552640277801 
! Port Impedance         50               0                50               0                
9                              0.177224120933943 38.4323804031035 0.94977831028235 -51.6312778850962 0.94977831028235 -51.6312778850962 0.177212682768948 38.5567233973968 
! Gamma         17.1592035747224 440.077745444044 17.0218757833123 440.350537796129 
! Port Impedance         50               0                50               0                
10                             0.189330814976205 33.2628822785923 0.944582487783815 -57.2270232126355 0.944582487783815 -57.2270232126355 0.189322614830048 33.4045337051769 
! Gamma         18.5718656949394 488.821235644918 18.4303145279124 489.128820475241 
! Port Impedance         50               0                50               0                
11                             0.199496660443066 28.0819139709511 0.939522247984721 -62.7931696976785 0.939522247984721 -62.7931696976785 0.19949269895993 28.2421760729512 
! Gamma         19.9997635955612 537.542895093972 19.8536429313974 537.885467606837 
! Port Impedance         50               0                50               0                
12                             0.207672830827004 22.9053331579535 0.934679147118794 -68.3323836475711 0.934679147118794 -68.3323836475711 0.207674245560508 23.0857410063517 
! Gamma         21.4404136659177 586.24145614024  21.2894375162921 586.619315260181 
! Port Impedance         50               0                50               0                
13                             0.21383086262249 17.743354868011  0.930121101264993 -73.8481876746135 0.930121101264992 -73.8481876746135 0.213838956572168 17.9457179429338 
! Gamma         22.8912850574969 634.916350298082 22.7352305301296 635.32985779644  
! Port Impedance         50               0                50               0                
14                             0.217959487600151 12.6026463070447 0.92590105939266 -79.3447693573631 0.925901059392661 -79.3447693573631 0.217975760476026 12.8291033245028 
! Gamma         24.3499232663837 683.567549457217 24.188628754414  684.017102481928 
! Port Impedance         50               0                50               0                
15                             0.220062006475506 7.4877556818394  0.922056369505453 -84.8267892743939 0.922056369505454 -84.8267892743939 0.220088190988061 7.74084647380813 
! Gamma         25.8140259392435 732.195444081793 25.6473870811563 732.681455911272 
! Port Impedance         50               0                50               0                
16                             0.220154276387121 2.40218787904267 0.918608692588291 -90.2991933491706 0.91860869258829 -90.2991933491706 0.220192382755888 2.68494812924694 
! Gamma         27.2814879370128 780.800745196864 27.1094525493377 781.323631489609 
! Port Impedance         50               0                50               0                
17                             0.218263349295497 -2.65069081263846 0.915564341467741 -95.7670328955327 0.915564341467741 -95.7670328955327 0.218315722416085 -2.33460350510467 
! Gamma         28.7504253455218 829.384403737877 28.5729878727521 829.944572542469 
! Port Impedance         50               0                50               0                
18                             0.21442676164691 -7.66679346793245 0.912914950784675 -101.235294474199 0.912914950784676 -101.235294474199 0.214496157270165 -7.31292961764589 
! Gamma         30.2191846324607 877.947543455956 30.0363804440868 878.545387917946 
! Port Impedance         50               0                50               0                
19                             0.208692444634761 -12.6403882907283 0.910638415472613 -106.708740863965 0.910638415472614 -106.708740863965 0.208782133961259 -12.243273631287 
! Gamma         31.6863412355687 926.491405074171 31.498240964114  927.127298309871 
! Port Impedance         50               0                50               0                
20                             0.201119201602922 -17.562981453918 0.908700064154672 -112.191764143783 0.908700064154673 -112.191764143783 0.20123311870521 -17.1157917960187 
! Gamma         33.1506907825084 975.017300325921 32.9573948758678 975.691591847116 
! Port Impedance         50               0                50               0                
21                             0.191777686906646 -22.4218231704366 0.907054057291483 -117.688252018439 0.907054057291483 -117.688252018439 0.191920641948136 -21.9159205428939 
! Gamma         34.6112353432383 1023.52657452286 34.4128688890976 1024.23958794515 
! Port Impedance         50               0                50               0                
22                             0.180751824282509 -27.1977337934049 0.90564501524991 -123.201468985526 0.90564501524991 -123.201468985526 0.180929820548191 -26.6219881556644 
! Gamma         36.067166594417  1072.02057667247 35.8638745319692 1072.77260846835 
! Port Impedance         50               0                50               0                
23                             0.168140635589711 -31.8617038986368 0.90440988714258 -128.733954601353 0.90440988714258 -128.733954601353 0.168361355965857 -31.2014730227698 
! Gamma         37.5178473539958 1120.50063614228 37.3097900799212 1121.29195516735 
! Port Impedance         50               0                50               0                
24                             0.154060544936826 -36.3692147422955 0.903280066500311 -134.287441770634 0.903280066500311 -134.287441770634 0.154334126466151 -35.604760495484 
! Gamma         38.9627925364942 1168.96804491903 38.7501419564692 1169.79889259892 
! Port Impedance         50               0                50               0                
25                             0.13864845716976 -40.6501055660795 0.90218374483417 -139.862798529769 0.902183744834171 -139.862798529769 0.138988779723305 -39.7540469284409 
! Gamma         40.4016503578328 1217.42404465947 40.1845863918242 1218.29463563851 
! Port Impedance         50               0                50               0                
26                             0.122066493289256 -44.5891578669068 0.901048470187452 -145.459997015019 0.901048470187451 -145.459997015019 0.122493440259424 -43.5222187701519 
! Gamma         41.8341843250441 1265.86981769475 41.6128918299827 1266.78034085124 
! Port Impedance         50               0                50               0                
27                             0.104510818507749 -47.9856762838353 0.899803847490622 -151.078113067665 0.899803847490621 -151.078113067665 0.105054505184083 -46.689343791288 
! Gamma         43.2602563809228 1314.30648128239 43.0349225286645 1315.25710103027 
! Port Impedance         50               0                50               0                
28                             0.0862316072071372 -50.4604113985803 0.898384285054121 -156.715359155403 0.898384285054119 -156.715359155403 0.0869409193591427 -48.8441661340503 
! Gamma         44.6798114481408 1362.73508448487 44.4506234805856 1363.72594221047 
! Port Impedance         50               0                50               0                
29                             0.0675870814348356 -51.2124879689157 0.896731661892386 -162.36915191465 0.896731661892385 -162.36915191465 0.0685484448033476 -49.1343704241196 
! Gamma         46.0928634554305 1411.15660713071 45.8600068203769 1412.1878227626  
! Port Impedance         50               0                50               0                
30                             0.0492208651291405 -48.2815104612674 0.894797769535727 -168.036213733521 0.894797769535726 -168.036213733521 0.0506017715911952 -45.5519783745526 
! Gamma         47.4994828908458 1459.57196032757 47.2631397125794 1460.64363394834 
! Port Impedance         50               0                50               0                
31                             0.0327865755748286 -36.0707776609489 0.892546374746204 -173.712705550128 0.892546374746204 -173.712705550128 0.034906963366822 -32.8632632031947 
! Gamma         48.8997858363247 1507.98198821413 48.6601336916514 1509.09420168072 
! Port Impedance         50               0                50               0                
32                             0.0238204451994801 -2.57073438553711 0.88995475970232 -179.39438569114 0.88995475970232 -179.39438569114 0.026742720904726 -2.10271877411242 
! Gamma         50.2939244231954 1556.38747056549 50.0511353833444 1557.54028909009 
! Port Impedance         50               0                50               0                
33                             0.0301366355109692 34.9096590978933 0.887014624703132 174.923212601934 0.887014624703131 174.923212601934 0.0325356083757502 31.5859424287663 
! Gamma         51.6820785931168 1604.78912599175 51.4363184996084 1605.9825996805  
! Port Impedance         50               0                50               0                
34                             0.0455071994083267 50.1248883380211 0.883732283019242 169.244593945993 0.883732283019242 169.244593945993 0.0471388514863882 46.8916455489186 
! Gamma         53.0644490677398 1653.18761551923 52.8158770085736 1654.42178083307 
! Port Impedance         50               0                50               0                
35                             0.063214479282905 54.2200046015897 0.880128132725567 163.574113812535 0.880128132725567 163.574113812535 0.0643907672669324 51.6002147762014 
! Gamma         54.4412513899102 1701.58354640841 54.1900193561379 1702.85842752974 
! Port Impedance         50               0                50               0                
36                             0.081208167553418 54.0162262950546 0.876235448687842 157.915801644236 0.876235448687843 157.915801644236 0.0821086917556834 51.8600313596205 
! Gamma         55.8127109377779 1749.97747600746 55.5589636162251 1751.29308613834 
! Port Impedance         50               0                50               0                
37                             0.098759063946666 51.8729834864833 0.872098591025715 152.273203123727 0.872098591025716 152.273203123727 0.0994755036402344 50.0394281435449 
! Gamma         57.1790587723883 1798.36991565924 56.9229334657296 1799.72625818119 
! Port Impedance         50               0                50               0                
38                             0.115496186888213 48.7254441283585 0.867770767149174 146.64924892676  0.867770767149173 146.64924892676  0.116078843344783 47.120876793379  
! Gamma         58.5405282379337 1846.7613344453  58.2821548762894 1848.15840402189 
! Port Impedance         50               0                50               0                
39                             0.131179216393903 45.006431987442  0.863311508070451 141.046155108619 0.86331150807045 141.046155108619 0.131657764378653 43.5692445099975 
! Gamma         59.8973521917362 1895.15216282822 59.6368534296372 1896.58994638602 
! Port Impedance         50               0                50               0                
40                             0.145631641895902 40.9417018317821 0.858784024583644 135.465357835488 0.858784024583644 135.465357835488 0.14602452690171 39.6298937054968 
! Gamma         61.24976078417   1943.54279610299 60.9872521624378 1945.0212737302  
! Port Impedance         50               0                50               0                
41                             0.158716679141147 36.6600741748711 0.854252596740286 129.907482820921 0.854252596740287 129.907482820921 0.159035712532793 35.4437631361193 
! Gamma         62.5979797118555 1991.93359764172 62.3335698606037 1993.45274339285 
! Port Impedance         50               0                50               0                
42                             0.170326821006528 32.2402757601846 0.849780124896327 124.372347793551 0.849780124896328 124.372347793551 0.170579593930234 31.0972806675074 
! Gamma         63.9422288656431 2040.3249019431  63.6760197475354 2041.88468456114 
! Port Impedance         50               0                50               0                
43                             0.180378336601209 27.7330810318898 0.84542593789287 118.858994775716 0.84542593789287 118.858994775716 0.180569561120931 26.6462422669743 
! Gamma         65.2827213064123 2088.71701743201 65.0148084867257 2090.31740099201 
! Port Impedance         50               0                50               0                
44                             0.188807762936639 23.172729679173  0.84124391917405 113.365747965647 0.841243919174049 113.365747965647 0.188940045469094 22.1282157734243 
! Gamma         66.6196625287833 2137.11022906113 66.3501354627957 2138.75117354283 
! Port Impedance         50               0                50               0                
45                             0.195569308674584 18.5832762427014 0.837280979495807 107.89029254895  0.837280979495806 107.89029254895  0.195643601935588 17.5694632706963 
! Gamma         67.9532499495099 2185.50480070746 67.6821922788568 2187.18626249729 
! Port Impedance         50               0                50               0                
46                             0.200632775395506 13.9823808177208 0.833575878629564 102.429769762237 0.833575878629564 102.429769762237 0.200648635567316 12.9890714721663 
! Gamma         69.2836725890771 2233.90097733523 69.0111624421435 2235.62290967682 
! Port Impedance         50               0                50               0                
47                             0.20398186913173 9.38374420593488 0.830158379843625 96.9808838343769 0.830158379843625 96.9808838343769 0.203937585735943 8.40158968379719 
! Gamma         70.6111109085918 2282.29898699841 70.3372212009812 2284.06134037132 
! Port Impedance         50               0                50               0                
48                             0.205612879155179 4.79880780002083 0.827048710212914 91.5400169352953 0.827048710212914 91.5400169352953 0.205505513583907 3.8188476346954  
! Gamma         71.9357367714353 2330.69904263119 71.660535506074  2332.5017651033  
! Port Impedance         50               0                50               0                
49                             0.205533736938983 0.238063968361153 0.824257296272111 86.1033488171571 0.824257296272111 86.103348817157  0.205359087193658 -0.748672844699085 
! Gamma         73.2577135078136 2379.10134369004 72.9812640644917 2380.94438120425 
! Port Impedance         50               0                50               0                
50                             0.203763475416552 -4.28780875741554 0.821784746648247 80.6669783461151 0.821784746648247 80.6669783461152 0.203515972370953 -5.29068336761726 
! Gamma         74.5771960560189 2427.50607763024 74.2995574705009 2429.38937426038 
! Port Impedance         50               0                50               0                
51                             0.200332104668324 -8.76682953862743 0.819622059334966 75.2270445204308 0.819622059334966 75.2270445204308 0.200004635291862 -9.79598935385663 
! Gamma         75.8943311626408 2475.91342122937 75.6155584030053 2477.83691940426 
! Port Impedance         50               0                50               0                
52                             0.195280914833546 -13.184475466427 0.817751039200175 69.779844791139  0.817751039200175 69.7798447911389 0.194864557702466 -14.2513023611982 
! Gamma         77.2092576411232 2524.32354178776 76.9294018624653 2526.28718248036 
! Port Impedance         50               0                50               0                
53                             0.188663216924249 -17.5221525464568 0.816144919319752 64.3219485575673 0.816144919319751 64.3219485575673 0.188146862640872 -18.6398037798627 
! Gamma         78.5221066499756 2572.73659820761 78.2412154426472 2574.74032108589 
! Port Impedance         50               0                50               0                
54                             0.180545545322565 -21.755146089136 0.814769186061838 58.8503035885618 0.814769186061838 58.8503035885618 0.179915356102709 -22.9392387941078 
! Gamma         79.8330020039699 2621.15274194291 79.5511196294908 2623.19648551741 
! Port Impedance         50               0                50               0                
55                             0.171009384924269 -25.8496876086658 0.813582611035872 53.3623328874752 0.813582611035872 53.3623328874752 0.170248018844575 -27.1191934133449 
! Gamma         81.1420604987244 2669.57211787568 80.8592281105826 2671.65581960748 
! Port Impedance         50               0                50               0                
56                             0.16015357591058 -29.758526990943 0.812538491918467 47.8560192130343 0.812538491918467 47.8560192130342 0.159239054011234 -31.1369627545151 
! Gamma         82.449392245729  2717.99486507142 82.1656480951044 2720.1184614764  
! Port Impedance         50               0                50               0                
57                             0.148097741064998 -33.4139270054191 0.81158609805333 42.3299742102562 0.81158609805333 42.3299742102562 0.147001755280091 -34.930941088016 
! Gamma         83.7551010082816 2766.42111748201 83.4704806431179 2768.58454419469 
! Port Impedance         50               0                50               0                
58                             0.134987485069078 -36.7160790475612 0.810672305500702 36.7834889353174 0.810672305500702 36.7834889353175 0.133672806459179 -38.409500490164 
! Gamma         85.0592845392171 2814.85100454391 84.7738209859297 2817.05419639525 
! Port Impedance         50               0                50               0                
59                             0.121002985923937 -39.5130999076705 0.809743390437998 31.2165626424585 0.809743390437998 31.2165626424585 0.119419394876113 -41.4312967014761 
! Gamma         86.3620349139611 2863.28465172671 86.0757588480852 2865.52754279591 
! Port Impedance         50               0                50               0                
60                             0.106374543826508 -41.565016607512 0.808746930973887 25.6299070583142 0.808746930973886 25.6299070583142 0.104452322857208 -43.7684808323501 
! Gamma         87.6634388528151 2911.7221810202  87.3763787594909 2914.00470467025 
! Port Impedance         50               0                50               0                
61                             0.0914131839426106 -42.476638629339 0.807633747779682 20.0249241055621 0.807633747779682 20.024924105562  0.0890527824394433 -45.0341726803968 
! Gamma         88.9635780417464 2960.16371136214 88.6757603637571 2962.48580027664 
! Port Impedance         50               0                50               0                
62                             0.0765752022319933 -41.5715333082844 0.806359796397127 14.4036561395367 0.806359796397128 14.4036561395367 0.0736323203004224 -44.5330842610375 
! Gamma         90.2625294337765 3008.60935901533 89.9739787098792 3010.97094522121 
! Port Impedance         50               0                50               0                
63                             0.0626035032216423 -37.6771055278851 0.804887911872472 8.76870919941727 0.804887911872472 8.76870919941727 0.0588776402126211 -40.9569632099808 
! Gamma         91.5603655456129 3057.05923790834 91.2711045390718 3059.46025279812 
! Port Impedance         50               0                50               0                
64                             0.0508172693181437 -28.946187543702 0.803189302458669 3.12315142897367 0.803189302458669 3.12315142897368 0.0461033257813141 -31.9201725728975 
! Gamma         92.8571547379889 3105.51345992898 92.5672045547211 3107.95383426491 
! Port Impedance         50               0                50               0                
65                             0.0434574621441142 -13.787225880976 0.801244695595181 -2.52960945801229 0.801244695595181 -2.52960945801229 0.037875183301575 -14.5885529091366 
! Gamma         94.1529614831549 3153.9721351908  93.862341683152  3156.45179912238 
! Port Impedance         50               0                50               0                
66                             0.0429741792744346 5.17973818104908 0.799045056848957 -8.18596421012174 0.799045056848956 -8.18596421012175 0.0374626532396489 8.20121763237261 
! Gamma         95.4478466225906 3202.43537225904 95.1565753205782 3204.95425531944 
! Port Impedance         50               0                50               0                
67                             0.0493947982381136 20.8105495134501 0.796591829824814 -13.8422488680506 0.796591829824814 -13.8422488680506 0.0448962526794088 26.0377148209525 
! Gamma         96.7418676061426 3250.9032783587  96.4499615665557 3253.46130946427 
! Port Impedance         50               0                50               0                
68                             0.0602100668259176 30.0129486741135 0.793896679303446 -19.4948929532879 0.793896679303446 -19.4948929532879 0.0568262147624579 35.5181590249428 
! Gamma         98.0350787224024 3299.37595955198 97.7425534474458 3301.97306700302 
! Port Impedance         50               0                50               0                
69                             0.0730588815735012 34.2362550373954 0.790980756835043 -25.1405614559553 0.790980756835043 -25.1405614559553 0.0705625536991559 39.3887754169885 
! Gamma         99.3275313144973 3347.85352088918 99.0344011227938 3350.48963236209 
! Port Impedance         50               0                50               0                
70                             0.0865565737598833 35.369314604276  0.78787354292333 -30.7762835682369 0.78787354292333 -30.7762835682369 0.0847386163644712 40.1042919078654 
! Gamma         100.619273983319 3396.33606654918 100.325552086291 3399.01110909273 
! Port Impedance         50               0                50               0                
71                             0.0999427259185527 34.6324946199366 0.78461134839502 -36.3995621872697 0.784611348395019 -36.3995621872697 0.098660859915585 39.0217916171818 
! Gamma         101.910352778553 3444.82369995853 101.61605134668  3447.53759998481 
! Port Impedance         50               0                50               0                
72                             0.112768432641194 32.7312429255386 0.781235576361467 -42.0084596981837 0.781235576361467 -42.0084596981837 0.111931263734541 36.8621022545224 
! Gamma         103.200811377248 3493.31652389834 102.905941605716 3496.06920716373 
! Port Impedance         50               0                50               0                
73                             0.124742778281099 30.0771606012607 0.777790853852881 -47.6016572694786 0.777790853852881 -47.6016572694787 0.124292238656189 34.0258107791788 
! Gamma         104.490691254464 3541.81464058243 104.195263420044 3544.60603219277 
! Port Impedance         50               0                50               0                
74                             0.135662767660308 26.919936308516  0.774323139079397 -53.1784866315401 0.774323139079398 -53.1784866315401 0.13556247915482 30.7490157036619 
! Gamma         105.780031836557 3590.31815174812 105.484055352063 3593.14817613831 
! Port Impedance         50               0                50               0                
75                             0.145380078771698 23.4177860286918 0.770877898240207 -58.7389348970633 0.770877898240207 -58.7389348970633 0.145608257297392 27.1788736759304 
! Gamma         107.068870651761 3638.8271587149  106.772354116047 3641.69573963761 
! Port Impedance         50               0                50               0                
76                             0.153784114680346 19.6752082067885 0.767498427731816 -64.2836242849455 0.767498427731816 -64.2836242849455 0.154329289142324 23.4118601066677 
! Gamma         108.357243465941 3687.34176244276 108.060194709475 3690.24882295693 
! Port Impedance         50               0                50               0                
77                             0.16079260916051 15.7639323764993 0.764224376733178 -69.813769545895 0.764224376733178 -69.813769545895 0.161651035515623 19.5142498186861 
! Gamma         109.645184409508 3735.86206358573 109.347610536339 3738.80752604743 
! Port Impedance         50               0                50               0                
78                             0.16634595233223 11.7350608664213 0.761090504452607 -75.3311164664547 0.761090504452607 -75.3311164664547 0.167520072020131 15.533721206535  
! Gamma         110.932726098532 3784.38816252769 110.634633525077 3787.37194857622 
! Port Impedance         50               0                50               0                
79                             0.170403492218698 7.62644727073609 0.758125688132477 -80.8378650687179 0.758125688132477 -80.8378650687179 0.171901066028315 11.5063219883375 
! Gamma         112.21989974395  3832.92015941921 111.921294236268 3835.94218996398 
! Port Impedance         50               0                50               0                
80                             0.172940994087293 3.46741969042394 0.755352183692136 -86.3365811030341 0.755352183692135 -86.3365811030341 0.174774705767053 7.46092038876179 
! Gamma         113.506735255786 3881.45815421037 113.207621961448 3884.51834942244 
! Port Impedance         50               0                50               0                
81                             0.173948865674785 -0.718004695463175 0.752785131239125 -91.8300992397229 0.752785131239125 -91.8300992397229 0.176136286997843 3.42226721144946 
! Gamma         114.793261338196 3930.00224667074 114.493644817706 3933.10052596957 
! Port Impedance         50               0                50               0                
82                             0.173430957958492 -4.90875512049544 0.750432292447271 -97.3214210872434 0.75043229244727 -97.3214210872434 0.175994829852503 -0.586694341201787 
! Gamma         116.07950557802  3978.55253641385 115.779389833062 3981.68881845392 
! Port Impedance         50               0                50               0                
83                             0.171403848135889 -9.08478313600033 0.748294005259187 -102.813610873798 0.748294005259186 -102.813610873798 0.174372679159585 -4.54287643838704 
! Gamma         117.365494528386 4027.10912290902 117.064883027763 4030.28332557214 
! Port Impedance         50               0                50               0                