! Touchstone file exported from HFSS 2024.2.0
!        File:           C:/Users/vaintrug/Documents/Ansoft_Workspace/Comparaison_Calculs_HFSS/1_VarPort.aedt
!        Generated:      03:22:17 PM Jan 21, 2025
!        Design:         1_NoDeembed_FacePortFree
!        Project:        1_VarPort
!        Setup:          Setup1
!        Solution:       Sweep
!
! Variables:
!        $Lenght = 1500um
!        $PortSize = 280um
!        Gap = 30um
!        Th = 2um
!        X_centralStrip = 20um
!        X_masse = 200um
!        Y_Sub = 1.5mm
!        Z_Box = 400um
!        Z_Sub = 200um
!
# GHz S MA R 50.000000
! Terminal data exported
! Port[1] = 1
! Port[2] = 2
1                              0.0206048657969433 62.4871387705851 0.989112149863536 -4.42463028832199 0.989112149863535 -4.42463028832199 0.0206060218271495 62.4907219248007 
! Gamma         5.97945146466735 49.9339250203923 6.00739166324425 50.1174338946645 
! Port Impedance         50               0                50               0                
2                              0.0368295064162389 69.6207099254342 0.986634467524678 -8.75290424099394 0.986634467524678 -8.75290424099394 0.0368297164290819 69.6271021230212 
! Gamma         7.78750614544085 98.4596820448866 7.81789889873248 98.7904885306121 
! Port Impedance         50               0                50               0                
3                              0.0534353661527313 70.0088998988109 0.984171505579158 -13.0854154191091 0.984171505579158 -13.085415419109 0.053434003312129 70.0216937934616 
! Gamma         9.22537496264833 147.006549260585 9.24892627695897 147.506009141276 
! Port Impedance         50               0                50               0                
4                              0.0699085138966445 68.1732796107191 0.981449543765384 -17.4158166307855 0.981449543765384 -17.4158166307855 0.0699061059065369 68.1931828995797 
! Gamma         10.5668255614782 195.620127415441 10.588367983525  196.29424603859  
! Port Impedance         50               0                50               0                
5                              0.0859888300774638 65.3688322168588 0.978431463061312 -21.7386674951152 0.978431463061311 -21.7386674951152 0.0859860332989211 65.3961356087295 
! Gamma         11.894114953388  244.267818190141 11.9166684241328 245.11761784167  
! Port Impedance         50               0                50               0                
6                              0.101511115294374 62.07108380588   0.97513303157999 -26.0501663052313 0.97513303157999 -26.0501663052313 0.101508579242592 62.1061373477346 
! Gamma         13.2327309199451 292.926450480787 13.2578529886566 293.95189968894  
! Port Impedance         50               0                50               0                
7                              0.116352039022061 58.4978142269705 0.971588578708531 -30.3474989836047 0.971588578708531 -30.3474989836047 0.116350406082647 58.5411064986509 
! Gamma         14.5907200172872 341.5821375314   14.6192243575497 342.783019055075 
! Port Impedance         50               0                50               0                
8                              0.13041242133285 54.7625365086975 0.967841092951494 -34.6285681944839 0.967841092951494 -34.6285681944839 0.130412346098163 54.8147065790094 
! Gamma         15.9698228498435 390.226362442283 16.0021415331097 391.602468010265 
! Port Impedance         50               0                50               0                
9                              0.143610357844733 50.9301351059952 0.963937917455085 -38.8918811662126 0.963937917455085 -38.8918811662126 0.143612527811982 50.9919756426671 
! Gamma         17.3691661319393 438.853743304334 17.405524040359  440.404913814183 
! Port Impedance         50               0                50               0                
10                             0.155878006199572 47.040259553115  0.959928168569172 -43.1364919280435 0.959928168569171 -43.1364919280436 0.155883161533526 47.1127219206534 
! Gamma         18.7867054735986 487.460873465758 18.827208864312  489.187001300377 
! Port Impedance         50               0                50               0                
11                             0.167159697312748 43.1183218646858 0.955860874945318 -47.3619594048106 0.955860874945318 -47.3619594048106 0.167168650020818 43.202525061313  
! Gamma         20.2198802815739 536.045690762094 20.2645647711165 537.94671368029  
! Port Impedance         50               0                50               0                
12                             0.177410542914625 39.1811434149154 0.951783535075945 -51.5683075141972 0.951783535075946 -51.5683075141972 0.177424196042038 39.2783869912737 
! Gamma         21.6659511093665 584.607104282822 21.714809344606  586.682998272023 
! Port Impedance         50               0                50               0                
13                             0.18659523784548 35.2400740638314 0.947740986893025 -55.755982964288 0.947740986893025 -55.755982964288 0.186614605190593 35.3518551396376 
! Gamma         23.122190429406  633.144751474873 23.1751889280176 635.395524552375 
! Port Impedance         50               0                50               0                
14                             0.194686956798151 31.3028271047012 0.943774539448052 -59.9258101356707 0.943774539448051 -59.9258101356707 0.194713183532076 31.4308616838896 
! Gamma         24.5859962603644 681.658825569104 24.6430861732797 684.084512506536 
! Port Impedance         50               0                50               0                
15                             0.201666323380648 27.3746212621363 0.939921331646819 -64.0789438431134 0.939921331646819 -64.0789438431134 0.20170070792364 27.5208704168294 
! Gamma         26.0549601359612 730.149944228017 26.1160843855041 732.750602286669 
! Port Impedance         50               0                50               0                
16                             0.20752045842519 23.4589293575397 0.936213886003787 -68.216821135382 0.936213886003787 -68.216821135382 0.207564475945924 23.6256310370575 
! Gamma         27.5269054966173 778.619044925397 27.592003659526  781.394750277591 
! Port Impedance         50               0                50               0                
17                             0.212242122517409 19.5579938960739 0.93267982609922 -72.3411132263977 0.932679826099219 -72.3411132263977 0.212297450502276 19.7477014576879 
! Gamma         28.9999058140795 827.067299600866 29.0689175248779 830.018144358351 
! Port Impedance         50               0                50               0                
18                             0.215828967035803 15.6731996625682 0.92934172781407 -76.4536784086588 0.92934172781407 -76.4536784086588 0.215897513504545 15.8888285728083 
! Gamma         30.4722884324432 875.496044438632 30.5451557809914 878.622134004305 
! Port Impedance         50               0                50               0                
19                             0.218282903799487 11.8053564349339 0.926217077139904 -80.5565165408042 0.926217077139904 -80.5565165408042 0.218366838926302 12.0502410367304 
! Gamma         31.9426284557593 923.906722059167 32.0192976207402 927.208172928435 
! Port Impedance         50               0                50               0                
20                             0.219609598688376 7.9549247812147  0.923318311089197 -84.6517254557953 0.923318311089197 -84.6517254557953 0.219711390841133 8.2328876078943  
! Gamma         33.4097357582854 972.300834574265 33.4901581440863 975.777772337594 
! Port Impedance         50               0                50               0                
21                             0.219818090281817 4.1222067009041  0.920652922535901 -88.7414594380819 0.9206529225359  -88.7414594380819 0.219940547836649 4.43764363309544 
! Gamma         34.8726376517459 1020.67990586874 34.9567705724805 1024.33246347609 
! Port Impedance         50               0                50               0                
22                             0.218920530715877 0.307516728901997 0.918223614352589 -92.8278898002837 0.91822361435259 -92.8278898002837 0.219066851459826 0.66550229655637 
! Gamma         36.3305589788753 1069.04545195148 36.4183660609071 1072.87376820677 
! Port Impedance         50               0                50               0                
23                             0.216932043209801 -3.48865406705832 0.916028492494115 -96.9131675064534 0.916028492494117 -96.9131675064534 0.217105873796498 -3.08223540505995 
! Gamma         37.7829011189142 1117.39895822707 37.8743524302089 1121.4031764535  
! Port Impedance         50               0                50               0                
24                             0.21387068842932 -7.26546975100706 0.914061291612104 -100.999387773508 0.914061291612104 -100.999387773508 0.214076197237538 -6.8037585500869 
! Gamma         39.229220879036  1165.74186259524 39.3242928938895 1169.92212947743 
! Port Impedance         50               0                50               0                
25                             0.209757530114619 -11.0215647978095 0.912311630151079 -105.088556597621 0.912311630151079 -105.088556597621 0.209999498174303 -10.4965169904438 
! Gamma         40.6692100691788 1214.07554348916 40.7678854807983 1218.43200809209 
! Port Impedance         50               0                50               0                
26                             0.204616789376414 -14.7548283003513 0.910765294550421 -109.182559199993 0.910765294550422 -109.182559199993 0.204900725882437 -14.1569460999924 
! Gamma         42.1026762323816 1262.40131186272 42.2049436614146 1266.93412481945 
! Port Impedance         50               0                50               0                
27                             0.198476076189277 -18.462137525774 0.90940455420792 -113.283130459326 0.909404554207921 -113.283130459326 0.198808367924477 -17.7801198300609 
! Gamma         43.5295248434221 1310.72040650375 43.6353784820845 1315.42971930126 
! Port Impedance         50               0                50               0                
28                             0.191366686483641 -22.1390126074413 0.908208510138218 -117.391827489014 0.908208510138218 -117.391827489014 0.19175479471068 -21.3592947307729 
! Gamma         44.9497431602338 1359.03399188042 45.0591823616454 1363.9199563029  
! Port Impedance         50               0                50               0                
29                             0.183323954399068 -25.7791495086544 0.907153480727745 -121.51000460157 0.907153480727744 -121.51000460157 0.183776679300773 -24.8852883331376 
! Gamma         46.3633857796418 1407.34315799927 46.4764146249153 1412.40592567337 
! Port Impedance         50               0                50               0                
30                             0.174387651882494 -29.373763559559 0.906213427774966 -125.638791000815 0.906213427774966 -125.638791000815 0.174915495014458 -28.3456027886887 
! Gamma         47.7705618802299 1455.64892177813 47.8871887327111 1460.88864381501 
! Port Impedance         50               0                50               0                
31                             0.164602434121724 -32.9106324376113 0.905360424979393 -129.779071621907 0.905360424979393 -129.779071621907 0.1652181062003  -31.7231489532555 
! Gamma         49.1714240858951 1503.95222953533 49.2916611475958 1509.36905627119 
! Port Impedance         50               0                50               0                
32                             0.154018341956486 -36.3726494912945 0.904565169306131 -133.931471610291 0.904565169306132 -133.931471610291 0.154737491613005 -34.9943274293854 
! Gamma         50.5661588383593 1552.25396025122 50.6900217202259 1557.84804103959 
! Port Impedance         50               0                50               0                
33                             0.142691397547651 -39.7355525182027 0.903797533257789 -138.096344955142 0.903797533257789 -138.096344955142 0.143533685714184 -38.1260423370502 
! Gamma         51.9549781654519 1600.55492933826 52.0824854751466 1606.32641244044 
! Port Impedance         50               0                50               0                
34                             0.130684379878943 -42.9642083495263 0.903027153193077 -142.27376782044 0.903027153193077 -142.27376782044 0.131675112801791 -41.0708787069224 
! Gamma         53.3381127002514 1648.85589274458 53.4692856510761 1654.80492524993 
! Port Impedance         50               0                50               0                
35                             0.118067972132958 -46.0062464082414 0.902224045526383 -146.463537067419 0.902224045526384 -146.463537067419 0.119240671673919 -43.7589860019076 
! Gamma         54.7158058140525 1697.15755117877 54.8506678671105 1703.28427896765 
! Port Impedance         50               0                50               0                
36                             0.104922705743045 -48.7805467512423 0.901359239257216 -150.66517439919 0.901359239257216 -150.66517439919 0.1063233211403  -46.0837636827789 
! Gamma         56.08830874841   1745.46055434066 56.2268852744032 1751.7651221072  
! Port Impedance         50               0                50               0                
37                             0.0913426821406058 -51.1550478155369 0.900405410002608 -154.877936423071 0.900405410002608 -154.877936423071 0.0930368178557864 -47.8752313091558 
! Gamma         57.4558765954469 1793.76550512267 57.5981945736143 1800.24805640195 
! Port Impedance         50               0                50               0                
38                             0.0774435133482954 -52.900509135936 0.899337497943963 -159.100830781895 0.899337497943963 -159.100830781895 0.0795294898069903 -48.8474065674976 
! Gamma         58.8187650344482 1842.07296361956 58.9648527750884 1848.73364084957 
! Port Impedance         50               0                50               0                
39                             0.0633812366677276 -53.5845265096685 0.898133290056594 -163.332638285104 0.898133290056594 -163.332638285104 0.0660149465208651 -48.4873979058812 
! Gamma         60.1772277030367 1890.38345099357 60.3271146031272 1897.22239559157 
! Port Impedance         50               0                50               0                
40                             0.0494036765443596 -52.2987476862603 0.896773946064191 -167.571940757736 0.896773946064191 -167.571940757736 0.0528472277844612 -45.8087267580205 
! Gamma         61.5315141217902 1938.69745308997 61.6852304409103 1945.71480554884 
! Port Impedance         50               0                50               0                
41                             0.036015050029812 -46.8646277280807 0.895244447881596 -171.817154073062 0.895244447881597 -171.817154073062 0.040720726484723 -38.816117940093 
! Gamma         62.8818680764725 1987.01542384993 63.0394447457121 1994.21132383315 
! Port Impedance         50               0                50               0                
42                             0.0246006703303878 -31.5340174108753 0.893533954049603 -176.066565604346 0.893533954049603 -176.066565604346 0.0311878338558181 -23.8520664226503 
! Gamma         64.2285263929389 2035.33778846497 64.3899948429732 2042.71237490251 
! Port Impedance         50               0                50               0                
43                             0.0193244441439244 2.55687702857722 0.891636043775762 179.6816248819   0.891636043775762 179.6816248819   0.0272853108923712 1.16159076274092 
! Gamma         65.5717180429387 2083.66494628566 65.7371100525325 2091.21835749596 
! Port Impedance         50               0                50               0                
44                             0.024483493809008 36.6148475490632 0.889548839520479 175.429262061362 0.889548839520479 175.429262061362 0.031161455571592 26.0234668927934 
! Gamma         66.9116635092271 2131.99727351303 67.0810110790129 2139.72964730098 
! Port Impedance         50               0                50               0                
45                             0.0356402208313187 51.9286359140134 0.887275002346356 171.178190883296 0.887275002346356 171.178190883296 0.0404868117973095 40.7907587871711 
! Gamma         68.2485743836448 2180.33512564592 68.4219096237192 2188.24659940742 
! Port Impedance         50               0                50               0                
46                             0.0486068160070337 57.3765464347615 0.884821600026277 166.930212748768 0.884821600026276 166.930212748768 0.052207809025908 47.684027261812  
! Gamma         69.5826531430264 2228.67883972467 69.7600081783314 2236.7695505579  
! Port Impedance         50               0                50               0                
47                             0.0620004106033905 58.6948924934776 0.882199853773829 162.687043355236 0.882199853773828 162.687043355236 0.0647905674993321 50.329684427296  
! Gamma         70.9140930729589 2277.02873635583 71.0954999629753 2285.29882115078 
! Port Impedance         50               0                50               0                
48                             0.0753228535389254 58.0578490929609 0.879424774905168 158.450273452747 0.879424774905167 158.450273452747 0.0775544008307887 50.6941215250503 
! Gamma         72.2430783076607 2325.38512156222 72.4285689817266 2333.83471709894 
! Port Impedance         50               0                50               0                
49                             0.0883342285738853 56.3724285369263 0.876514707361428 154.221333613285 0.876514707361429 154.221333613285 0.0901563750802722 49.7500355863639 
! Gamma         73.5697839701011 2373.74828844627 73.759390167474  2382.37753148317 
! Port Impedance         50               0                50               0                
50                             0.100887984550549 54.070748361551  0.873490795471342 150.001463918299 0.873490795471342 150.001463918299 0.102393825836862 48.0040537601693 
! Gamma         74.8943763708923 2422.11851868827 75.0881296008063 2430.92754604941 
! Port Impedance         50               0                50               0                
51                             0.112879436718268 51.382207685665  0.870376398422601 145.791689239149 0.870376398422601 145.791689239149 0.114130109972683 45.7392743868958 
! Gamma         76.217013279974  2470.49608391841 76.4149447811538 2479.48503256104 
! Port Impedance         50               0                50               0                
52                             0.124226731020865 48.4392714365246 0.867196473586278 141.592800547448 0.867196473586278 141.592800547448 0.12526416860698 43.1244008641739 
! Gamma         77.5378442236099 2518.88124691199 77.7399849396363 2528.05025400913 
! Port Impedance         50               0                50               0                
53                             0.13486278870362 45.323637599208  0.863976950156133 137.405342439166 0.863976950156132 137.405342439166 0.135716798796289 40.2655959456205 
! Gamma         78.8570108224933 2567.2742626998  79.0633913758257 2576.62346569153 
! Port Impedance         50               0                50               0                
54                             0.144731478440253 42.0884071184926 0.86074411277229 133.229606839448 0.86074411277229 133.229606839448 0.145423878704712 37.2327632589295 
! Gamma         80.1746471385103 2615.67537954617 80.3852978174353 2625.20491620299 
! Port Impedance         50               0                50               0                
55                             0.153785578568291 38.7695936480872 0.857524012109807 129.065632647815 0.857524012109807 129.065632647815 0.154332719372739 34.0736970164749 
! Gamma         81.4908800429366 2664.08483981984 81.70583078959   2673.7948483026  
! Port Impedance         50               0                50               0                
56                             0.16198555160399 35.3924977423447 0.854341916201806 124.913210931447 0.854341916201806 124.913210931447 0.162399915550744 30.8221196772234 
! Gamma         82.80582958269   2712.50288079441 83.0251099861701 2722.39349968982 
! Port Impedance         50               0                50               0                
57                             0.169298708178466 31.9754361315955 0.851221812809022 120.771895148542 0.851221812809021 120.771895148542 0.169589956104594 27.5024687766367 
! Gamma         84.1196093513871 2760.929735343   84.3432486448724 2771.00110370768 
! Port Impedance         50               0                50               0                
58                             0.175698569102153 28.5320314267722 0.848185969754075 116.641015813027 0.848185969754075 116.641015813027 0.175874240953241 24.1328707479388 
! Gamma         85.4323268536278 2809.36563257315 85.660353913526  2819.61788997123 
! Port Impedance         50               0                50               0                
59                             0.181164338230335 25.0726816584489 0.845254557032476 112.519698967563 0.845254557032476 112.519698967563 0.18123033074774 20.7270613845562 
! Gamma         86.7440838628734 2857.81079839248 86.9765272109293 2868.24408491817 
! Port Impedance         50               0                50               0                
60                             0.185680447932845 21.6055448265484 0.842445331861995 108.406887828942 0.842445331861995 108.406887828942 0.185641342846563 17.2956726806834 
! Gamma         88.0549767714952 2906.26545600425 88.2918645789214 2916.8799123104  
! Port Impedance         50               0                50               0                
61                             0.189236162767987 18.1372283825638 0.839773385745154 104.301366994648 0.839773385745154 104.301366994648 0.189095451192301 13.8471275293164 
! Gamma         89.3650969274011 2954.72982636723 89.6064570207379 2965.52559368646 
! Port Impedance         50               0                50               0                
62                             0.191825238440096 14.673296005409  0.837250951128014 100.201788627589 0.837250951128015 100.201788627589 0.191585470265568 10.3882865321085 
! Gamma         90.674530959359  3003.20412859283 90.9203908268363 3014.18134874685 
! Port Impedance         50               0                50               0                
63                             0.193445638292765 11.2186611545328 0.834887264318996 96.1067000975203 0.834887264318996 96.1067000975203 0.193108514751381 6.92493644677566 
! Gamma         91.9833610892632 3051.68858030368 92.2337478891811 3062.84739571564 
! Port Impedance         50               0                50               0                
64                             0.194099311390957 7.77791268985156 0.832688480958836 92.0145726017504 0.832688480958836 92.0145726017504 0.193665731964262 3.46217817049203 
! Gamma         93.2916654304345 3100.18339796021 93.5466059981417 3111.52395166439 
! Port Impedance         50               0                50               0                
65                             0.193792036495877 4.35560419565992 0.830657640370585 87.9238303413298 0.830657640370585 87.9238303413298 0.193262106425093 0.00475376721380259 
! Gamma         94.5995182703212 3148.68879715181 94.8590391282001 3160.2112327869  
! Port Impedance         50               0                50               0                
66                             0.192533335580816 0.956531371129554 0.82879467551784 83.8328798732002 0.82879467551784 83.8328798732002 0.191906336470145 -3.44265842589356 
! Gamma         95.9069903401085 3197.204992846   96.1711177065571 3208.90945466329 
! Port Impedance         50               0                50               0                
67                             0.190336459766362 -2.41398118431785 0.827096465905253 79.7401392883065 0.827096465905252 79.7401392883065 0.189610782536434 -6.8751568991923 
! Gamma         97.2141490716662 3245.73219962497 97.4829088697902 3257.61883247941 
! Port Impedance         50               0                50               0                
68                             0.187218449968479 -5.74976214715639 0.82555693147887 75.6440668888775 0.825556931478869 75.6440668888775 0.186391486217319 -10.287316115466 
! Gamma         98.5210588371737 3294.27063191241 98.7944767037581 3306.33958124346 
! Port Impedance         50               0                50               0                
69                             0.183200274608158 -9.04341949119379 0.824167166303265 71.5431890437495 0.824167166303265 71.5431890437495 0.182268258835914 -13.6728476900772 
! Gamma         99.8277811791504 3342.82050413062 100.105882473246 3355.07191596429 
! Port Impedance         50               0                50               0                
70                             0.178307047956098 -12.2858779454549 0.822915611404403 67.4361268960645 0.822915611404403 67.4361268960645 0.177264838581259 -17.0241940442469 
! Gamma         101.134375023363 3391.38203089677 101.417184835588 3403.81605182381 
! Port Impedance         50               0                50               0                
71                             0.172568335756251 -15.4657829754556 0.821788266591917 63.3216215810357 0.821788266591918 63.3216215810357 0.171409116698032 -20.3320144119397 
! Gamma         102.440896883342 3439.95542716906 102.728440042752 3452.57220432971 
! Port Impedance         50               0                50               0                
72                             0.166018561030177 -18.568705923226 0.820768941209457 59.1985575946239 0.820768941209457 59.1985575946239 0.164733436848601 -23.5845049886213 
! Gamma         103.74740104839  3488.54090839216 104.039702131994 3501.34058944889 
! Port Impedance         50               0                50               0                
73                             0.158697534394896 -21.5760517532417 0.819839543574157 55.0659839191023 0.819839543574158 55.0659839191024 0.157274978919717 -26.7664647231002 
! Gamma         105.053939765513 3537.13869062182 105.351023102483 3550.12142374109 
! Port Impedance         50               0                50               0                
74                             0.150651153519715 -24.4635166107894 0.818980408295346 50.9231325001603 0.818980408295346 50.9231325001603 0.149076252036239 -29.8579669916125 
! Gamma         106.360563403981 3585.74899064574 106.662453084851 3598.91492447432 
! Port Impedance         50               0                50               0                
75                             0.14193235222697 -27.1988521156629 0.818170659705533 46.7694336442005 0.818170659705533 46.7694336442005 0.140185746286636 -32.8324092176761 
! Gamma         107.667320615661 3634.37202610123 107.974040496356 3647.72130972997 
! Port Impedance         50               0                50               0                
76                             0.132602443459661 -29.7385404291004 0.817388608319526 42.6045279085065 0.817388608319526 42.6045279085065 0.130658838270955 -35.6535562607534 
! Gamma         108.974258480272 3683.00801556771 109.285832188686 3696.54079850627 
! Port Impedance         50               0                50               0                
77                             0.122733116128053 -32.0227200738115 0.816612175596863 38.4282740693527 0.816612175596863 38.4282740693527 0.120559131616988 -38.2709081125034 
! Gamma         110.281422645746 3731.65717867246 110.597873585682 3745.37361081218 
! Port Impedance         50               0                50               0                
78                             0.112409561166952 -33.9672399760793 0.815819340435054 34.2407527929752 0.815819340435054 34.2407527929752 0.109960581279901 -40.6121828462671 
! Gamma         111.588857457869 3780.31973617659 111.910208812732 3794.21996775699 
! Port Impedance         50               0                50               0                
79                             0.1017356146302  -35.4509063769481 0.814988598873575 30.0422657009059 0.814988598873576 30.0422657009059 0.0989510917108089 -42.5706485295889 
! Gamma         112.896606080448 3828.99591005742 113.222880817217 3843.08009163159 
! Port Impedance         50               0                50               0                
80                             0.0908426163258437 -36.2945969825449 0.814099426617559 25.8333296115333 0.81409942661756 25.8333296115332 0.0876390091276497 -43.9828966668311 
! Gamma         114.204710611362 3877.6859236071  114.535931482266 3891.95420599554 
! Port Impedance         50               0                50               0                
81                             0.0799052979935828 -36.2267982108313 0.813132732361418 21.614665865167  0.813132732361418 21.614665865167  0.0761655758530869 -44.5882260722578 
! Gamma         115.513212188129 3926.39000149405 115.849401733042 3940.84253574856 
! Port Impedance         50               0                50               0                
82                             0.0691711553873728 -34.8282855945444 0.81207128870438 17.3871847793762 0.81207128870438 17.3871847793762 0.0647303205978767 -43.9518803115576 
! Gamma         116.822151088653 3975.10836985532 117.163331636013 3989.74530721046 
! Port Impedance         50               0                50               0                
83                             0.0590150025774255 -31.4547529765178 0.810900126857903 13.1519654486479 0.810900126857903 13.1519654486479 0.0536458270040604 -41.3196146738276 
! Gamma         118.131566826229 4023.84125636372 118.477760492402 4038.66274819476 
! Port Impedance         50               0                50               0                