! Touchstone file exported from HFSS 2024.2.0
!        File:           C:/Users/vaintrug/Documents/Ansoft_Workspace/Comparaison_Calculs_HFSS/1_VarPort.aedt
!        Generated:      03:22:19 PM Jan 21, 2025
!        Design:         1_NoDeembed_FacePortFree
!        Project:        1_VarPort
!        Setup:          Setup1
!        Solution:       Sweep
!
! Variables:
!        $Lenght = 2000um
!        $PortSize = 390um
!        Gap = 30um
!        Th = 2um
!        X_centralStrip = 20um
!        X_masse = 200um
!        Y_Sub = 2mm
!        Z_Box = 400um
!        Z_Sub = 200um
!
# GHz S MA R 50.000000
! Terminal data exported
! Port[1] = 1
! Port[2] = 2
1                              0.0277630495161504 61.3311024730283 0.985435932439313 -5.89944418193445 0.985435932439313 -5.89944418193445 0.0277618210750945 61.3448785836317 
! Gamma         5.84777338263719 49.810499644891  5.86863627933202 49.8001767360226 
! Port Impedance         50               0                50               0                
2                              0.0495126060117787 66.8055709015849 0.98187967326948 -11.6632728556644 0.98187967326948 -11.6632728556644 0.0495090662873332 66.8375229602923 
! Gamma         7.56214003491977 98.3357843431074 7.60466761247185 98.2877431228419 
! Port Impedance         50               0                50               0                
3                              0.0714693467216599 65.7106037453679 0.978269944690078 -17.4274570741254 0.978269944690078 -17.4274570741254 0.0714647130607928 65.7618609983467 
! Gamma         8.95003833640429 146.911344009865 9.00495442166004 146.818126529366 
! Port Impedance         50               0                50               0                
4                              0.0928785029266239 62.4458261835364 0.974245199093559 -23.1821095829194 0.974245199093559 -23.1821095829194 0.0928744759865457 62.5164527808105 
! Gamma         10.2637960187128 195.551573179942 10.3262424753745 195.412711787262 
! Port Impedance         50               0                50               0                
5                              0.113300784025343 58.2426098529014 0.969789021514132 -28.9180035932949 0.969789021514132 -28.9180035932949 0.113298934928637 58.3327967343693 
! Gamma         11.5716689226945 244.221309287519 11.639720170612  244.037335499748 
! Port Impedance         50               0                50               0                
6                              0.132437012608878 53.5719509357789 0.964968095640888 -34.628785794931 0.964968095640888 -34.6287857949309 0.132438767670962 53.6821038407951 
! Gamma         12.8935972016051 292.899047269703 12.966609730209  292.670334310698 
! Port Impedance         50               0                50               0                
7                              0.150061586769017 48.6509570152559 0.959878500817432 -40.3102247464484 0.959878500817433 -40.3102247464484 0.150068250091327 48.7816788110972 
! Gamma         14.2354290610612 341.572488185084 14.3133046486388 341.299140134107 
! Port Impedance         50               0                50               0                
8                              0.165998998676457 43.593081943684  0.954627693662796 -45.9598572351016 0.954627693662796 -45.9598572351016 0.166011772557835 43.7451626838746 
! Gamma         15.5980185459405 390.234235537795 15.6808885817387 389.91613883257  
! Port Impedance         50               0                50               0                
9                              0.180113533329789 38.4629114516327 0.949325068162944 -51.576799166054 0.949325068162946 -51.5767991660539 0.180133537619712 38.6373312805394 
! Gamma         16.9801583529147 438.879669458957 17.0682396999206 438.516553515914 
! Port Impedance         50               0                50               0                
10                             0.192303110406923 33.2993530137491 0.944075626888255 -57.1615900663678 0.944075626888255 -57.1615900663678 0.192331403073527 33.4972953304834 
! Gamma         18.3797202390705 487.505906750673 18.4732452708131 487.097392301616 
! Port Impedance         50               0                50               0                
11                             0.202494496078042 28.1266631334541 0.938975392977906 -62.7160286331858 0.938975392977906 -62.7160286331858 0.202532096246098 28.3495366043902 
! Gamma         19.7941788845147 536.111250931899 19.8933606323133 535.656886230777 
! Port Impedance         50               0                50               0                
12                             0.210639086404675 22.9602317971511 0.934108120161048 -68.2429908992532 0.934108120161049 -68.2429908992532 0.210687000595048 23.2097012962831 
! Gamma         21.2208876251649 584.694869599695 21.3259029051924 584.194157436287 
! Port Impedance         50               0                50               0                
13                             0.216709119120834 17.8099011107439 0.929543074532348 -73.746234652717 0.929543074532347 -73.746234652717 0.216768371361733 18.0879289716168 
! Gamma         22.6572379442874 633.256583363568 22.7682203389132 632.709001425175 
! Port Impedance         50               0                50               0                
14                             0.22069437446062 12.6820447776005 0.925333706387654 -79.2301970097391 0.925333706387654 -79.2301970097391 0.220766041197458 12.9909448116407 
! Gamma         24.1007561418871 681.796714266819 24.2177945619049 681.201730331677 
! Port Impedance         50               0                50               0                
15                             0.222599463722176 7.58099758417895 0.921517042309078 -84.6997917690914 0.921517042309078 -84.6997917690914 0.222684715014166 7.92350574704537 
! Gamma         25.5491616900729 730.315968728525 25.6723021862632 729.673051977443 
! Port Impedance         50               0                50               0                
16                             0.222441782837542 2.51014376429086 0.918113643137405 -90.1602116176033 0.918113643137404 -90.1602116176033 0.22254193222661 2.88951123428701 
! Gamma         27.0004000639664 778.815343223385 27.1296494239072 778.123972535709 
! Port Impedance         50               0                50               0                
17                             0.220250166955637 -2.52715393810655 0.915127999334722 -95.6167387095539 0.915127999334722 -95.6167387095539 0.220366733736785 -2.10703685077976 
! Gamma         28.4526576706397 827.29604660877  28.5879879514444 826.555716423956 
! Port Impedance         50               0                50               0                
18                             0.216064244375704 -7.52665613626325 0.912549267098471 -101.074565665477 0.912549267098471 -101.074565665477 0.216199034109892 -7.06109255248757 
! Gamma         29.9043640319408 875.759435763331 30.0457174654909 874.969659989787 
! Port Impedance         50               0                50               0                
19                             0.209934453167083 -12.4822621913459 0.910352283198709 -106.53862838194 0.910352283198709 -106.53862838194 0.21008966551551 -11.9655186033261 
! Gamma         31.3541849191692 924.20696244774  31.5014788121487 923.367276885244 
! Port Impedance         50               0                50               0                
20                             0.201922662128307 -17.3847979157492 0.908498827269022 -112.013451631177 0.908498827269022 -112.013451631177 0.202101040524832 -16.8097815134669 
! Gamma         32.801009339318  972.64012997323  32.9541407277692 971.750093518404 
! Port Impedance         50               0                50               0                
21                             0.192103323987824 -22.2203663883961 0.906939125484252 -117.503008802971 0.906939125484251 -117.503008802971 0.192308370703041 -21.5781621512815 
! Gamma         34.2439325332261 1021.06045841143 34.4027824771584 1020.11965337991 
! Port Impedance         50               0                50               0                
22                             0.180565097524428 -26.9679095294145 0.905613604620218 -123.010597573921 0.905613604620218 -123.010597573921 0.180801393851866 -26.2470984036119 
! Gamma         35.6822367306552 1069.46945727793 35.8466741478257 1068.47748898749 
! Port Impedance         50               0                50               0                
23                             0.16741291638104 -31.5953342216285 0.904454910426492 -128.538734147466 0.904454910426492 -128.538734147466 0.167686617455441 -30.7809585684551 
! Gamma         37.1153709485494 1117.8686046128  37.2852559931739 1116.82510052337 
! Port Impedance         50               0                50               0                
24                             0.15277060285202 -36.0529337536708 0.903390196820576 -134.089069372788 0.903390196820576 -134.089069372788 0.153090234770479 -35.1248736893398 
! Gamma         38.5429308110036 1166.25933149598 38.7181177605426 1165.16393996985 
! Port Impedance         50               0                50               0                
25                             0.136784422753841 -40.2614334736344 0.902343674145371 -139.662330694688 0.902343674145371 -139.662330694688 0.137162229624205 -39.1917614927051 
! Gamma         39.9646390472958 1214.64301119613 40.1449787402115 1213.49540005003 
! Port Impedance         50               0                50               0                
26                             0.11962873852656 -44.0885835453793 0.901239376305852 -145.258294032926 0.901239376305852 -145.258294032926 0.120083092059511 -42.8370812661681 
! Gamma         41.3803271663495 1263.02095198443 41.5656690242667 1261.82080689724 
! Port Impedance         50               0                50               0                
27                             0.101517000998329 -47.2991216382583 0.900004071795886 -150.875789342607 0.900004071795886 -150.875789342607 0.10207701681946 -45.8054180570377 
! Gamma         42.789918557539  1311.39439302228 42.9801122389413 1310.1414159038  
! Port Impedance         50               0                50               0                
28                             0.0827277512051559 -49.4356284054634 0.898570207176114 -156.512742668739 0.898570207176114 -156.512742668739 0.0834428864494433 -47.6054252987346 
! Gamma         44.1934132022493 1359.76450263103 44.3883099002986 1358.45840998526 
! Port Impedance         50               0                50               0                
29                             0.0636786536010024 -49.4939220793597 0.896878739279756 -162.166255832831 0.896878739279755 -162.166255832831 0.0646404964997237 -47.1793586951564 
! Gamma         45.5908740090157 1408.13237842789 45.7903274835543 1406.77289975641 
! Port Impedance         50               0                50               0                
30                             0.0451853351327143 -44.8903034714619 0.894881691135261 -167.832722697956 0.894881691135261 -167.832722697956 0.0465786747607255 -41.9172695876794 
! Gamma         46.9824147834804 1456.499048856   47.1862821316825 1455.08592512124 
! Port Impedance         50               0                50               0                
31                             0.0295824060353812 -28.075786837558 0.892544261960376 -173.507978417682 0.892544261960376 -173.507978417682 0.0317389556640849 -24.9500242026502 
! Gamma         48.3681897368228 1504.86547571482 48.5763319537569 1503.39845791738 
! Port Impedance         50               0                50               0                
32                             0.0243081994700176 11.3067616284152 0.889846337169967 -179.187475431243 0.889846337169967 -179.187475431243 0.02697382956468 10.822293407857  
! Gamma         49.7483844428594 1553.23255745137 49.9606668131034 1551.71140527065 
! Port Impedance         50               0                50               0                
33                             0.0344632082249571 42.8382109460611 0.886783280659595 175.133522358011 0.886783280659594 175.133522358011 0.0364565926698155 40.1518829228063 
! Gamma         51.1232081084974 1601.60113287097 51.339500445924  1600.02561343602 
! Port Impedance         50               0                50               0                
34                             0.0512599519500821 53.758872099113  0.883365945116073 169.459737450306 0.883365945116073 169.459737450306 0.0526687535186297 51.4942923895825 
! Gamma         52.4928870444615 1649.97198512801 52.7130638208223 1648.34187188862 
! Port Impedance         50               0                50               0                
35                             0.0695566955565669 56.2076030024563 0.879619899828075 163.795679674687 0.879619899828075 163.795679674687 0.0706408786209718 54.4943162872255 
! Gamma         53.8576591856175 1698.3458458707  54.0815995590028 1696.66091757045 
! Port Impedance         50               0                50               0                
36                             0.0878453640081366 55.2783341816792 0.875583940323857 158.145460941266 0.875583940323857 158.145460941266 0.088741783720223 53.9717531556767 
! Gamma         55.2177695453695 1746.72339934293 55.4453573215    1744.98343908538 
! Port Impedance         50               0                50               0                
37                             0.105529481569194 52.7619442970506 0.871308000733517 152.51263328835  0.871308000733516 152.51263328835  0.106310601020674 51.7521248557008 
! Gamma         56.5734664959441 1795.10528643433 56.8045900213996 1793.31008085635 
! Port Impedance         50               0                50               0                
38                             0.122278447401357 49.399550673706  0.866850630330679 146.900057644483 0.86685063033068 146.900057644483 0.122986612190591 48.6160409418767 
! Gamma         57.924998730231  1843.49210858523 58.1595507522628 1841.64144711285 
! Port Impedance         50               0                50               0                
39                             0.137867480780223 45.5463624978608 0.86227621583946 141.309808155973 0.862276215839459 141.309808155973 0.138529890698417 44.9440149917587 
! Gamma         59.2726128498348 1891.88443149656 59.5104903387782 1889.9781056787  
! Port Impedance         50               0                50               0                
40                             0.152127833276201 41.3925435683095 0.857652130095343 135.743114187219 0.857652130095343 135.743114187219 0.152763466029482 40.9418310319781 
! Gamma         60.6165514450467 1940.28278866008 60.8576553976852 1938.32059158953 
! Port Impedance         50               0                50               0                
41                             0.164927872247493 37.0486908361093 0.85304596852138 130.20033958171  0.853045968521381 130.20033958171  0.165550972850944 36.7300351581517 
! Gamma         61.9570516285466 1988.68768463565 62.2012868507732 1986.66941042201 
! Port Impedance         50               0                50               0                
42                             0.176164367516011 32.5833058903174 0.848523002942374 124.68099667249  0.848523002942374 124.68099667249  0.176786355311779 32.3837693356804 
! Gamma         63.2943439233661 2037.09959811172 63.5416188101715 2035.02504143688 
! Port Impedance         50               0                50               0                
43                             0.185757577230247 28.0409538322508 0.84414394396271 119.183791027985 0.844143943962711 119.183791027985 0.186388169083114 27.9522669944085 
! Gamma         64.6286514574165 2085.51898475055 64.878877766118  2083.38794045318 
! Port Impedance         50               0                50               0                
44                             0.193647909331483 23.4518294080538 0.839963064591124 113.70669204382  0.839963064591124 113.70669204382  0.194295831826628 23.4691940287941 
! Gamma         65.9601894150937 2133.94627977821 66.2132820392748 2131.75854252358 
! Port Impedance         50               0                50               0                
45                             0.19979334850946 18.8371829160793 0.83602670385524 108.247024208556 0.83602670385524 108.247024208556 0.200466826971212 18.9585441014438 
! Gamma         67.2891646892427 2182.38190040934 67.5450414377443 2180.13726436703 
! Port Impedance         50               0                50               0                
46                             0.204167364900134 14.212624598443  0.832372142904556 102.801574013159 0.832372142904556 102.801574013159 0.204874491336517 14.438244173613  
! Gamma         68.6157757104682 2230.82624802954 68.8743570900184 2228.52450661771 
! Port Impedance         50               0                50               0                
47                             0.206757225055486 9.59029502424902 0.829026828864189 97.3667079595566 0.82902682886419 97.3667079595566 0.207506265673222 9.92253287597567 
! Gamma         69.9402124105146 2279.27971019945 70.2014214141753 2276.92065585592 
! Port Impedance         50               0                50               0                
48                             0.207562701800684 4.9804211371465  0.826007913291817 91.9384977307679 0.826007913291818 91.9384977307679 0.208362384613853 5.4236748534433  
! Gamma         71.2626562922757 2327.74266249727 71.5264182015147 2325.32608647502 
! Port Impedance         50               0                50               0                
49                             0.206595201712891 0.392555990207387 0.823322071249017 86.5128492180987 0.823322071249018 86.5128492180987 0.207455016112789 0.953336487975004 
! Gamma         72.5832805911851 2376.21547018497 72.8495227810969 2373.74116238819 
! Port Impedance         50               0                50               0                
50                             0.203877328508236 -4.16330413944607 0.820965571859031 81.0856326399583 0.820965571859031 81.0856326399583 0.204807867259795 -3.47616356193848 
! Gamma         73.9022505019352 2424.6984897293  74.1709022602681 2422.16623855936 
! Port Impedance         50               0                50               0                
51                             0.199442892463932 -8.67557247899415 0.81892457960106 75.6528113620759 0.81892457960106 75.6528113620759 0.200456271112159 -7.85055915842556 
! Gamma         75.2197234577542 2473.19207018113 75.4907158117281 2470.60166242191 
! Port Impedance         50               0                50               0                
52                             0.193337368323153 -13.1297396029902 0.817175675302676 70.2105671807432 0.817175675302676 70.2105671807432 0.194447768140033 -12.1521238847467 
! Gamma         76.5358494458756 2521.69655445298 76.8091149999086 2519.04777515686 
! Port Impedance         50               0                50               0                
53                             0.1856188038307  -17.506657666488 0.815686594752613 64.7554198067289 0.815686594752613 64.7554198067289 0.186843204672594 -16.357719833166 
! Gamma         77.8507713518568 2570.21228046195 78.1262441350397 2567.50491285941 
! Port Impedance         50               0                50               0                
54                             0.176359197582505 -21.7801403653193 0.814417189168018 59.2843380550599 0.814417189168019 59.2843380550599 0.177718401882573 -20.4360778789589 
! Gamma         79.1646253220964 2618.73958217694 79.4422406441154 2615.97340760564 
! Port Impedance         50               0                50               0                
55                             0.165646415211574 -25.9133749392434 0.81332061388685 53.7948399079041 0.813320613886851 53.7948399079041 0.167166523918075 -24.3437671808186 
! Gamma         80.4775411375742 2667.27879059336 80.7572354565931 2664.45358842977 
! Port Impedance         50               0                50               0                
56                             0.153586833165609 -29.8532438148057 0.812344748346595 48.2850782395481 0.812344748346595 48.2850782395481 0.155301438016442 -28.0189067035966 
! Gamma         81.7896425936355 2715.83023460511 82.0713533886051 2712.94578221463 
! Port Impedance         50               0                50               0                
57                             0.140309168331781 -33.520847137291 0.811433841131119 42.7539086827612 0.811433841131118 42.7539086827613 0.142262708060841 -31.3708852448187 
! Gamma         83.1010478794317 2764.39424182513 83.3847135346968 2761.45031451743 
! Port Impedance         50               0                50               0                
58                             0.125970557898171 -36.7948138787044 0.810530358650098 37.2009359767825 0.810530358650098 37.2009359767825 0.128223613792386 -34.2627861027123 
! Gamma         84.4118699530181 2812.97113933019 84.6974296512724 2809.96751032401 
! Port Impedance         50               0                50               0                
59                             0.110767375956865 -39.4802028117065 0.80957699595912 31.6265353110051 0.80957699595912 31.6265353110051 0.113405257826611 -36.4800030137946 
! Gamma         85.7222169171755 2861.56125436179 86.0096105362296 2858.49769475058 
! Port Impedance         50               0                50               0                
60                             0.0949568283861934 -41.2469606147642 0.808518785390166 26.0318457266374 0.808518785390166 26.0318457266374 0.0981036965213431 -37.6719989905263 
! Gamma         87.0321923810093 2910.16491496613 87.3213603995967 2907.04119370225 
! Port Impedance         50               0                50               0                
61                             0.0789049420147395 -41.5007827597409 0.807305216061857 20.4187336217357 0.807305216061857 20.4187336217357 0.0827463053171644 -37.2421720011932 
! Gamma         88.3418958147263 2958.78245060553 88.632779226707  2955.5983344778  
! Port Impedance         50               0                50               0                
62                             0.0632039916182818 -39.1030141715875 0.805892258710467 14.7897258363987 0.805892258710467 14.7897258363987 0.0680151115250371 -34.1505298590793 
! Gamma         89.6514228944424 3007.4141927261  89.9439631265513 3004.16944634646 
! Port Impedance         50               0                50               0                
63                             0.0489777418096564 -31.8240791852499 0.804244179429233 9.14791355626752 0.804244179429234 9.14791355626752 0.055110243304625 -26.6784425388246 
! Gamma         90.9608658391291 3056.06047530143 91.2550046745257 3052.75486109009 
! Port Impedance         50               0                50               0                
64                             0.0385790976093438 -16.1369397195455 0.802335026048873 3.49683023504409 0.802335026048873 3.49683023504408 0.0461531819369379 -12.8947750750394 
! Gamma         92.2703137290458 3104.72163533859 92.5659932379683 3101.35491352408 
! Port Impedance         50               0                50               0                
65                             0.03585280406398 7.78705383294005 0.800149683865145 -2.15969132552433 0.800149683865145 -2.15969132552433 0.043896659841558 5.98115713653585 
! Gamma         93.579852821353  3153.39801338403 93.8770152943067 3149.96994198956 
! Port Impedance         50               0                50               0                
66                             0.0422269782711618 28.7455635622429 0.797684423053781 -7.81767591566889 0.797684423053782 -7.81767591566889 0.0491985341538298 23.081457291588  
! Gamma         94.8895668477927 3202.08995398717 95.1881547354381 3198.60028883613 
! Port Impedance         50               0                50               0                
67                             0.0542771034129554 40.2000833910288 0.794946896038162 -13.4731688766164 0.794946896038162 -13.4731688766164 0.0597943835897685 33.8015731327445 
! Gamma         96.1995373062413 3250.79780617549 96.4994931614986 3247.24630087933 
! Port Impedance         50               0                50               0                
68                             0.0686454376415267 44.9290079878839 0.791955584977211 -19.1223965501593 0.791955584977211 -19.1223965501593 0.073004369127432 39.0241721952585 
! Gamma         97.5098437401487 3299.52192390354 97.8111101638049 3295.90832986991 
! Port Impedance         50               0                50               0                
69                             0.0836463854452445 45.9821357761051 0.78873874190384 -24.7619158955589 0.788738741903841 -24.7619158955589 0.0871685773180143 40.7663034637486 
! Gamma         98.8205640059881 3348.26266649982 99.123083597434  3344.58673293096 
! Port Impedance         50               0                50               0                
70                             0.0984679816431832 45.0106636110366 0.78533290125774 -30.3887458944098 0.78533290125774 -30.3887458944098 0.101380364187718 40.4140732638694 
! Gamma         100.131774535246 3397.02039911529 100.435489846225 3393.28187300664 
! Port Impedance         50               0                50               0                
71                             0.112662179795444 42.8575925890418 0.781781071952628 -36.0004748500429 0.781781071952628 -36.0004748500429 0.115115047847259 38.7720942136676 
! Gamma         101.4435505859   3445.79549316162 101.748404074152 3441.99411930968 
! Port Impedance         50               0                50               0                
72                             0.125944930224474 39.9755763996325 0.778130730890816 -41.5953395850325 0.778130730890816 -41.5953395850325 0.128038627396582 36.3056040642016 
! Gamma         102.755966485613 3494.5883267683  103.061900473413 3490.72384777321 
! Port Impedance         50               0                50               0                
73                             0.138117783595995 36.6240937208338 0.774431741382369 -47.1722745507098 0.774431741382369 -47.1722745507098 0.139920819911878 33.2936339914969 
! Gamma         104.069095867744 3543.39928522748 104.376052502968 3539.4714414878  
! Port Impedance         50               0                50               0                
74                             0.149034334970748 32.9611523291185 0.770734309749219 -52.7309307815213 0.770734309749219 -52.7309307815213 0.150594459701033 29.9110694496002 
! Gamma         105.383011903658 3592.22876144499 105.690933120483 3588.23729117937 
! Port Impedance         50               0                50               0                
75                             0.158584256143743 29.0881546008649 0.767087074531383 -58.2716662722993 0.767087074531383 -58.2716662722993 0.15993517557681 26.2722597248689 
! Gamma         106.697787524898 3641.07715642549 107.006615009574 3637.02179566172 
! Port Impedance         50               0                50               0                
76                             0.166684782238417 25.0732382990962 0.763535398986676 -63.7955105882086 0.763535398986676 -63.7955105882086 0.16785030436452 22.4549387315081 
! Gamma         108.013495644688 3689.9448797404  108.323170800154 3685.82536233406 
! Port Impedance         50               0                50               0                
77                             0.173275617175901 20.9641763629768 0.760119912757033 -69.3041073283305 0.760119912757033 -69.3041073283305 0.174272261892699 18.5139222316095 
! Gamma         109.330209374249 3738.83235002252 109.640673287191 3734.64840765416 
! Port Impedance         50               0                50               0                
78                             0.178315557935905 16.7959369128155 0.756875325845226 -74.7996384367502 0.756875325845226 -74.7996384367502 0.179154227217827 14.4893266677702 
! Gamma         110.648002235004 3787.73999548358 110.959195644354 3783.49135767061 
! Port Impedance         50               0                50               0                
79                             0.181780096764302 12.5953877910563 0.753829519563559 -80.2847344029793 0.753829519563558 -80.2847344029793 0.182467148710461 10.4117554756427 
! Gamma         111.966948371066 3836.66825443041 112.278811637819 3832.35464853484 
! Port Impedance         50               0                50               0                
80                             0.183659676185444 8.3844269473517  0.751002905990313 -85.7623741780164 0.751002905990314 -85.7623741780164 0.184197605161588 6.30576521119078 
! Gamma         113.287122757661 3885.61757582364 113.599595834343 3881.23872705869 
! Port Impedance         50               0                50               0                
81                             0.18395845757862 4.18224164265321 0.748408039827442 -91.2357782910993 0.748408039827442 -91.2357782910993 0.184346300377174 2.19235133880679 
! Gamma         114.608601411897 3934.58841984069 114.921623814697 3930.14405128763 
! Port Impedance         50               0                50               0                
82                             0.182693547877685 0.00711359112406477 0.74604946377843 -96.7082982588467 0.746049463778431 -96.7082982588467 0.182927085880313 -1.9091001698286 
! Gamma         115.931461601605 3983.5812584772  116.24497238245  3979.07109108853 
! Port Impedance         50               0                50               0                
83                             0.179894667169707 -4.12195140349533 0.743923769542222 -102.18330503442 0.743923769542222 -102.18330503442 0.179966461991158 -5.97909665719038 
! Gamma         117.255782058269 4032.59657616795 117.569719777439 4028.02032878365 
! Port Impedance         50               0                50               0                