! Touchstone file exported from HFSS 2024.2.0
!        File:           C:/Users/vaintrug/Documents/Ansoft_Workspace/Comparaison_Calculs_HFSS/1_VarPort.aedt
!        Generated:      03:22:16 PM Jan 21, 2025
!        Design:         1_NoDeembed_FacePortFree
!        Project:        1_VarPort
!        Setup:          Setup1
!        Solution:       Sweep
!
! Variables:
!        $Lenght = 1500um
!        $PortSize = 90um
!        Gap = 30um
!        Th = 2um
!        X_centralStrip = 20um
!        X_masse = 200um
!        Y_Sub = 1.5mm
!        Z_Box = 400um
!        Z_Sub = 200um
!
# GHz S MA R 50.000000
! Terminal data exported
! Port[1] = 1
! Port[2] = 2
1                              0.0208949668042536 62.6909993630257 0.98907280304769 -4.43636124885343 0.989072803047689 -4.43636124885344 0.0208939714893981 62.698348389308  
! Gamma         5.5966831575748  49.7736052607351 5.63951706694729 49.9953176837176 
! Port Impedance         50               0                50               0                
2                              0.0373477174983988 69.6341656776065 0.98654791672758 -8.77177742791776 0.98654791672758 -8.77177742791777 0.0373501345102238 69.6450906886698 
! Gamma         7.30602638281245 98.3906026185445 7.42698650053583 98.778020622116  
! Port Impedance         50               0                50               0                
3                              0.0541689199730622 69.9712149009124 0.984056280442527 -13.1114639514574 0.984056280442527 -13.1114639514574 0.054175086053601 69.9826520859532 
! Gamma         8.69564026562772 147.024538876494 8.86248608572756 147.541311691943 
! Port Impedance         50               0                50               0                
4                              0.0708599135162985 68.1122789666792 0.981304960632749 -17.4491856688831 0.981304960632749 -17.4491856688831 0.0708696151362783 68.1245208685669 
! Gamma         10.0097777325635 195.712450992667 10.2037316906763 196.358006176889 
! Port Impedance         50               0                50               0                
5                              0.087159506852183 65.2928317318552 0.978252656363499 -21.7793209222885 0.9782526563635  -21.7793209222885 0.0871727343913675 65.3062302254788 
! Gamma         11.3145818363793 244.425325074048 11.5284877929158 245.202857676949 
! Port Impedance         50               0                50               0                
6                              0.102901225563808 61.9836018409768 0.974914369342951 -26.097945804608 0.97491436934295 -26.097945804608 0.102918101569797 61.9983606904734 
! Gamma         12.6300271784747 293.144597580005 12.8613039218438 294.056452978608 
! Port Impedance         50               0                50               0                
7                              0.117961006031208 58.4008149126079 0.971324623464192 -30.4021634304336 0.971324623464192 -30.4021634304336 0.1179817229524  58.4170334820301 
! Gamma         13.9625806694528 341.859346902177 14.2104603435065 342.906855592389 
! Port Impedance         50               0                50               0                
8                              0.132239307517613 54.6573915425926 0.967526952449322 -34.6898156283364 0.967526952449322 -34.6898156283364 0.132264092833779 54.6751030372402 
! Gamma         15.3137652161446 390.562764956345 15.5782416140156 391.746538145149 
! Port Impedance         50               0                50               0                
9                              0.14565410121614 50.81797774879   0.963569400311804 -38.959362571884 0.963569400311804 -38.959362571884 0.145683196004235 50.8371713811159 
! Gamma         16.6829616108462 439.25041493028  16.9643554734291 440.570584515449 
! Port Impedance         50               0                50               0                
10                             0.158137575284597 46.9221371454225 0.959501860363169 -43.2098211329033 0.959501860363169 -43.2098211329033 0.158171219224405 46.9427705510861 
! Gamma         18.068532044362  487.919377376715 18.3672936224754 489.37575384242  
! Port Impedance         50               0                50               0                
11                             0.169634193152278 42.9952701404783 0.955374174634234 -47.4407209519015 0.955374174634233 -47.4407209519015 0.169672613002919 43.0172763647665 
! Gamma         19.4683529661909 536.567793310264 19.7849647305473 538.159968598787 
! Port Impedance         50               0                50               0                
12                             0.180099261677119 39.0542268806379 0.951234669012739 -51.6520633653704 0.951234669012739 -51.6520633653704 0.180142661951498 39.0775182656755 
! Gamma         20.8801025776161 585.194591652186 21.2150285508859 586.922008585656 
! Port Impedance         50               0                50               0                
13                             0.189497701024959 35.1104106367251 0.947129009664387 -55.8442784534572 0.947129009664387 -55.8442784534572 0.189546256287372 35.1348808621884 
! Gamma         22.3014303502635 633.799308049688 22.6550893947093 635.661309048873 
! Port Impedance         50               0                50               0                
14                             0.197802912749376 31.1716052992673 0.943099327306817 -60.018179440623 0.943099327306818 -60.018179440623 0.197856761230389 31.1971301691503 
! Gamma         23.7300621944099 682.381952497761 24.1028144874301 684.377815171698 
! Port Impedance         50               0                50               0                
15                             0.204995722865964 27.243114111941  0.939183572324055 -64.1749151600003 0.939183572324055 -64.1749151600003 0.205054961205102 27.2695514564085 
! Gamma         25.1638662569119 730.942905744865 25.5560075987244 733.071869604506 
! Port Impedance         50               0                50               0                
16                             0.211063406319202 23.3285073831593 0.935415067312538 -68.3159217072623 0.935415067312538 -68.3159217072623 0.211128085271577 23.3556962149963 
! Gamma         26.6008926550608 779.482834733666 27.0126535902613 781.744121445446 
! Port Impedance         50               0                50               0                
17                             0.215998807672873 19.4301385740506 0.931822224621416 -72.4428743504941 0.931822224621415 -72.4428743504941 0.216068928621183 19.4578975543858 
! Gamma         28.0393949092523 828.002621761902 28.4709428389913 830.395450802684 
! Port Impedance         50               0                50               0                
18                             0.219799572039258 15.5495184309178 0.928428398071299 -76.5576405432295 0.9284283980713  -76.5576405432296 0.219875084147271 15.5776436410923 
! Gamma         29.4778382530903 876.50330509685  29.9292813957629 879.026905648136 
! Port Impedance         50               0                50               0                
19                             0.22246749655249 11.687600140192  0.925251840806333 -80.6622345951399 0.925251840806334 -80.6622345951399 0.222548294389156 11.7158621047425 
! Gamma         30.9148984126127 924.98602901334  31.386290901973  927.639649003126 
! Port Impedance         50               0                50               0                
20                             0.224008007667525 7.84500848894914 0.922305745173339 -84.7587743335096 0.92230574517334 -84.7587743335096 0.224093929112509 7.87314831092141 
! Gamma         32.3494537522484 973.452002383222 32.8408012642475 976.234915181703 
! Port Impedance         50               0                50               0                
21                             0.224429765594258 4.02223491115537 0.919598344887997 -88.8494398733217 0.919598344887998 -88.8494398733217 0.224520589836785 4.04995936396084 
! Gamma         33.7805728091949 1021.90246483285 34.2918384231765 1024.81397402569 
! Port Impedance         50               0                50               0                
22                             0.223744393348805 0.219814245673504 0.917133064429438 -92.9364344947768 0.917133064429438 -92.9364344947768 0.223839838767869 0.246789560730683 
! Gamma         35.207499021132  1070.33865953405 35.738609021773  1073.37810217685 
! Port Impedance         50               0                50               0                
23                             0.221966325413845 -3.56150403676919 0.914908704980619 -97.0219475460889 0.914908704980619 -97.0219475460889 0.222066047112989 -3.53566001535885 
! Gamma         36.6296338739965 1118.76181187164 37.1804833334133 1121.92856046187 
! Port Impedance         50               0                50               0                
24                             0.219112768886032 -7.32057829163757 0.912919660291243 -101.108119264364 0.912919660291242 -101.108119264364 0.219216355613007 -7.29630607958394 
! Gamma         38.0465195214251 1167.17311323485 38.6169775341255 1170.46657668597 
! Port Impedance         50               0                50               0                
25                             0.215203768621242 -11.0556782245416 0.911156159309312 -105.197007426499 0.911156159309311 -105.197007426499 0.215310738751889 -11.0334894394857 
! Gamma         39.4578215639406 1215.57370907215 40.0477360512072 1218.99333288917 
! Port Impedance         50               0                50               0                
26                             0.210262367045539 -14.7642541544209 0.909604535263058 -109.290555786966 0.909604535263057 -109.290555786966 0.21037216321638 -14.7447479425704 
! Gamma         40.8633125219763 1263.96469054754 41.4725146187743 1267.50995637321 
! Port Impedance         50               0                50               0                
27                             0.204314848924015 -18.4426515554375 0.90824752304568 -113.390564332306 0.90824752304568 -113.390564332306 0.2044268307462  -18.4265360348695 
! Gamma         42.2628563650629 1312.34708923303 42.8911643063262 1316.01751394096 
! Port Impedance         50               0                50               0                
28                             0.197391061805372 -22.0857416949652 0.907064588198518 -117.49866147263 0.907064588198518 -117.49866147263 0.19750449586673 -22.0738622888544 
! Gamma         43.6563942799337 1360.72187415923 44.3036168497179 1364.51700856521 
! Port Impedance         50               0                50               0                
29                             0.189524804565008 -25.6864245236058 0.906032291488183 -121.616278382183 0.906032291488184 -121.616278382183 0.189638850553875 -25.6798019766784 
! Gamma         45.0439318038581 1409.08995077639 45.7098713282879 1413.00937811387 
! Port Impedance         50               0                50               0                
30                             0.180754280242371 -29.2349354480787 0.905124693045625 -125.744625803391 0.905124693045625 -125.744625803391 0.180867971437467 -29.2348176922904 
! Gamma         46.4255273389081 1457.45216137164 47.109982270833  1461.49549560449 
! Port Impedance         50               0                50               0                
31                             0.171122617296394 -32.7178455269618 0.904313799218287 -129.884673713667 0.904313799218287 -129.884673713667 0.171234832691879 -32.7257798047427 
! Gamma         47.801282034564  1505.8092866199  48.5040491455963 1509.97617065911 
! Port Impedance         50               0                50               0                
32                             0.160678478528477 -36.1165704826454 0.903570053774515 -134.037134337744 0.903570053774516 -134.037134337744 0.160787902231158 -36.1345057943699 
! Gamma         49.171330944797  1554.16204790229 49.8922071803191 1558.45215178007 
! Port Impedance         50               0                50               0                
33                             0.149476806462102 -39.4050685562018 0.902862872850362 -138.202449033052 0.902862872850362 -138.202449033052 0.149581867153899 -39.4355047095795 
! Gamma         50.5358354184823 1602.51111022979 51.2746194218078 1606.92412925994 
! Port Impedance         50               0                50               0                
34                             0.13757981155042 -42.5461499743197 0.902161220237363 -142.380779610365 0.902161220237363 -142.380779610365 0.137678589692193 -42.5923602913582 
! Gamma         51.8949765604015 1650.85708548907 52.6514699343798 1655.39273847746 
! Port Impedance         50               0                50               0                
35                             0.125058426923471 -45.4853082117757 0.901434216315635 -146.572004625618 0.901434216315635 -146.572004625618 0.125148507736955 -45.5516823174948 
! Gamma         53.2489497130415 1699.2005359012  54.0229580191666 1703.85856339274 
! Port Impedance         50               0                50               0                
36                             0.111994703548612 -48.1399054456724 0.900651770465733 -150.775721134515 0.900651770465733 -150.775721134515 0.112072934752125 -48.2324941114107 
! Gamma         54.5979598074412 1747.54197757222 55.3892933672814 1752.32214019102 
! Port Impedance         50               0                50               0                
37                             0.0984861908095857 -50.3791337044959 0.899785223284494 -154.991252292202 0.899785223284494 -154.991252292202 0.0985482642910441 -50.5065435461766 
! Gamma         55.9422174984183 1795.8818840268  56.7506919913003 1800.78396089051 
! Port Impedance         50               0                50               0                
38                             0.0846547586425456 -51.9843903279674 0.898807981791274 -159.217661031842 0.898807981791274 -159.217661031842 0.084694447038002 -52.1592925800644 
! Gamma         57.2819359836087 1844.22068966789 58.1073729047438 1849.24447687887 
! Port Impedance         50               0                50               0                
39                             0.0706661537960219 -52.564752439188 0.897696128320014 -163.453769874254 0.897696128320014 -163.453769874254 0.0706738263133159 -52.8064211426051 
! Gamma         58.6173284086168 1892.55879310711 59.4595553783888 1897.70410236629 
! Port Impedance         50               0                50               0                
40                             0.0567782131851523 -51.3608947627194 0.896428982268231 -167.698186689609 0.896428982268231 -167.698186689609 0.0567377609484488 -51.6989358372269 
! Gamma         59.948605782073  1940.89656032004 60.8074567493511 1946.16321762363 
! Port Impedance         50               0                50               0                
41                             0.0434749223661222 -46.7574178999768 0.894989593577723 -171.949335993787 0.894989593577723 -171.949335993787 0.043357245374259 -47.2321926749029 
! Gamma         61.2759753278822 1989.23432764651 62.1512906719771 1994.6221720763  
! Port Impedance         50               0                50               0                
42                             0.0318779244342274 -35.1610168108911 0.893365147949342 -176.205495118029 0.893365147949343 -176.205495118029 0.0316306495293555 -35.7769174500935 
! Gamma         62.5996391963165 2037.57240458147 63.4912657571501 2043.08128719393 
! Port Impedance         50               0                50               0                
43                             0.024803622149836 -10.9498561529638 0.891547266345276 179.535165650738 0.891547266345275 179.535165650738 0.0243774069012792 -11.3883625291856 
! Gamma         63.9197934933466 2085.91107635837 64.8275845339237 2091.54085916255 
! Port Impedance         50               0                50               0                
44                             0.0262543880102975 19.9649502596573 0.889532185262269 175.274540056096 0.88953218526227 175.274540056096 0.0257562791793005 20.2209223196564 
! Gamma         65.2366275650884 2134.25060634742 66.1604426832206 2140.00116137111 
! Port Impedance         50               0                50               0                
45                             0.035066890102985 39.6299476821388 0.887320809278146 171.014541237105 0.887320809278146 171.014541237105 0.0346298289561643 40.2000224633849 
! Gamma         66.5503234977294 2182.59123826962 67.4900284970471 2188.46244668745 
! Port Impedance         50               0                50               0                
46                             0.0470857799872138 48.3822650287798 0.884918633147545 166.757056814707 0.884918633147546 166.757056814707 0.0467173977314831 48.9683248254427 
! Gamma         67.8610557964547 2230.93319818562 68.8165225242345 2236.92494955903 
! Port Impedance         50               0                50               0                
47                             0.0601842884955987 51.6371041926791 0.882335536770238 162.503905060204 0.882335536770238 162.503905060204 0.0598667021538564 52.1807484013073 
! Gamma         69.1689912111679 2279.27669635292 70.1400973745067 2285.38888790747 
! Port Impedance         50               0                50               0                
48                             0.0735294483971712 52.1757095386394 0.879585462199987 158.256793456636 0.879585462199986 158.256793456636 0.0732492734205935 52.6759724458882 
! Gamma         70.4742886802278 2327.62192888211 71.4609176372852 2333.85446487216 
! Port Impedance         50               0                50               0                
49                             0.0867418331056213 51.2489410436856 0.876685987026872 154.017280841378 0.876685987026872 154.017280841378 0.0864906885861265 51.7138475506663 
! Gamma         71.777099361508  2375.96907926528 72.7791399134476 2382.32187037657 
! Port Impedance         50               0                50               0                
50                             0.0996097770853075 49.4624123939645 0.873657812567316 149.786744143047 0.873657812567316 149.786744143047 0.0993824051259461 49.8997834287211 
! Gamma         73.0775667533282 2424.31831973212 74.0949129140334 2430.79128256488 
! Port Impedance         50               0                50               0                
51                             0.111994181179083 47.137178724515  0.870524188064317 145.566350502893 0.870524188064316 145.566350502893 0.111787183985748 47.5532751525297 
! Gamma         74.3758268599387 2472.66981249047 75.4083776313714 2479.26286907592 
! Port Impedance         50               0                50               0                
52                             0.123792844229862 44.457341627159  0.867310293405423 141.357035334072 0.867310293405423 141.357035334072 0.123603958557292 44.8569951808459 
! Gamma         75.6720084106935 2521.023710834   76.7196675529474 2527.7367882071  
! Port Impedance         50               0                50               0                
53                             0.134925414678723 41.5354667520483 0.8640426027516  137.159486610512 0.864042602751601 137.159486610512 0.134753094981556 41.9224161351984 
! Gamma         76.9662331087036 2569.38016015356 78.028908909618  2576.21318996337 
! Port Impedance         50               0                50               0                
54                             0.145326339649993 38.4440616352361 0.860748250056231 132.974135447389 0.860748250056231 132.974135447389 0.145169511524209 38.8212450957326 
! Gamma         78.2586159036042 2617.73929881872 79.3362209576065 2624.69221697988 
! Port Impedance         50               0                50               0                
55                             0.154941220727422 35.2318604835784 0.857454415048015 128.801152811874 0.857454415048016 128.801152811874 0.154799130376516 35.6016348629791 
! Gamma         79.5492652831128 2666.10125899587 80.6417162687971 2673.17400537338 
! Port Impedance         50               0                50               0                
56                             0.163724731534147 31.9327877993029 0.854187745102397 124.64045202964  0.854187745102397 124.64045202964  0.163596851406573 32.2970868320614 
! Gamma         80.8382835681873 2714.46616736118 81.9455010372306 2721.658685483   
! Port Impedance         50               0                50               0                
57                             0.171639294525412 28.5711621023641 0.850973824936465 120.491696609057 0.850973824936465 120.491696609057 0.171525263141399 28.9316108044021 
! Gamma         82.1257672219423 2762.83414573726 83.2476753882255 2770.14638255243 
! Port Impedance         50               0                50               0                
58                             0.178654147398014 25.1648610425192 0.847836702484007 116.354312811165 0.847836702484007 116.354312811165 0.178553730822652 25.5228595638536 
! Gamma         83.411807150251  2811.20531168248 84.5483336934556 2818.63721732122 
! Port Impedance         50               0                50               0                
59                             0.184744622988188 21.7273291089353 0.844798475948339 112.227506343591 0.844798475948338 112.227506343591 0.184657690562196 22.0841156251989 
! Gamma         84.6964890019792 2859.57977898345 85.8475648759968 2867.13130655991 
! Port Impedance         50               0                50               0                
60                             0.189891558214898 18.2689023060059 0.841878944076418 108.110282533726 0.841878944076418 108.110282533726 0.18981806807298 18.6256015784334 
! Gamma         85.9798934689235 2907.9576581246  87.1454527172452 2915.62876354958 
! Port Impedance         50               0                50               0                
61                             0.194080792770337 14.7977167203071 0.839095319292014 104.001469355065 0.839095319292014 104.001469355065 0.19402078439291 15.1553789386069 
! Gamma         87.2620965691536 2956.33905667843 88.4420761513638 2964.12969849961 
! Port Impedance         50               0                50               0                
62                             0.197302740988778 11.3203573697282 0.83646200152139 99.899742713686  0.836462001521389 99.899742713686  0.197256333087463 11.6799905607698 
! Gamma         88.5431699273685 3004.72407967665 89.7375095543481 3012.63421893062 
! Port Impedance         50               0                50               0                
63                             0.199552031550611 7.8423426136995  0.833990409373716 95.8036534513367 0.833990409373716 95.8036534513367 0.199519424266239 8.20494103110743 
! Gamma         89.8231810449779 3053.11282992319 91.031823018439  3061.14242999915 
! Port Impedance         50               0                50               0                
64                             0.200827214987728 4.36850464131199 0.831688864731203 91.7116555813713 0.831688864731203 91.7116555813713 0.200808695845939 4.73507499597869 
! Gamma         91.1021935558953 3101.50540826777 92.3250826214204 3109.65443479754 
! Port Impedance         50               0                50               0                
65                             0.20113054098772 0.903306436345754 0.8295625267182  87.6221353256061 0.8295625267182  87.6221353256061 0.201126494406861 1.27489351955557 
! Gamma         92.3802674741555 3149.90191386489 93.6173506791764 3158.17033461137 
! Port Impedance         50               0                50               0                
66                             0.200467807934298 -2.54887589308343 0.827613371320977 83.5334405760064 0.827613371320977 83.5334405760064 0.200478728372386 -2.17116279925781 
! Gamma         93.6574594260695 3198.30244438982 94.9086859871287 3206.69022915945 
! Port Impedance         50               0                50               0                
67                             0.198848286664299 -5.98348269987929 0.825840213551756 79.4439104420799 0.825840213551756 79.4439104420799 0.198874795774926 -5.59844124642562 
! Gamma         94.9338228768741 3246.70709622258 96.1991440535626 3255.21421677777 
! Port Impedance         50               0                50               0                
68                             0.196284719775998 -9.39549202057629 0.824238769839916 75.3519045760446 0.824238769839917 75.3519045760446 0.196327588244167 -9.00179455906014 
! Gamma         96.2094083368734 3295.11596463935 97.488777315664  3303.74239461821 
! Port Impedance         50               0                50               0                
69                             0.19279339729751 -12.7791115510392 0.822801759199157 71.2558319818903 0.822801759199157 71.2558319818903 0.192853572404255 -12.3752675231248 
! Gamma         97.4842635668087 3343.52914393564 98.7776353461052 3352.2748587913  
! Port Impedance         50               0                50               0                
70                             0.188394309533447 -16.1274168415183 0.821519042546528 67.1541790122804 0.821519042546528 67.1541790122804 0.188472949984282 -15.7117276694652 
! Gamma         98.7584337590974 3391.94672757102 100.06576504893  3400.81170451116 
! Port Impedance         50               0                50               0                
71                             0.183111378925612 -19.4319037117161 0.820377800236182 63.0455362472836 0.820377800236181 63.0455362472836 0.183209899148516 -19.0024075324868 
! Gamma         100.031961719085 3440.368808279   101.353210841405 3449.35302621143 
! Port Impedance         50               0                50               0                
72                             0.176972775536975 -22.6819101141371 0.819362748320318 58.9286239230183 0.819362748320318 58.9286239230183 0.177092902628195 -22.2363128856575 
! Gamma         101.304888030755 3488.79547817771 102.640014828052 3497.89891765584 
! Port Impedance         50               0                50               0                
73                             0.170011326414561 -25.8638415303816 0.81845639419937 54.8023155472501 0.818456394199371 54.8023155472501 0.170155174323882 -25.3994299984822 
! Gamma         102.577251212132 3537.22682882885 103.926216960981 3546.44947202186 
! Port Impedance         50               0                50               0                
74                             0.162265039746661 -28.9600992675112 0.817639332087788 50.6656593058408 0.817639332087789 50.6656593058408 0.162435207425301 -28.4736299431082 
! Gamma         103.849087859576 3585.66295134764 105.211855192408 3595.004781986   
! Port Impedance         50               0                50               0                
75                             0.153777783912639 -31.947553240063 0.816890578090484 46.5178968300935 0.816890578090484 46.5178968300934 0.153977487407072 -31.4351099711149 
! Gamma         105.12043278888  3634.10393643562 106.496965616288 3643.56493978849 
! Port Impedance         50               0                50               0                
76                             0.144600196167254 -34.7953026208105 0.816187943608831 42.3584788743292 0.816187943608832 42.3584788743292 0.144833449685585 -34.2521140570117 
! Gamma         106.391319158696 3682.5498744644  107.781582601115 3692.1300372959  
! Port Impedance         50               0                50               0                
77                             0.134790958507303 -37.4612968908952 0.815508444335549 38.1870774391405 0.815508444335549 38.1870774391405 0.135062827425806 -36.881505479621 
! Gamma         107.66177859157  3731.00085549255 109.065738913727 3740.70016604836 
! Port Impedance         50               0                50               0                
78                             0.124418695240319 -39.8870845287464 0.814828740269816 34.0035938906131 0.814828740269815 34.0035938906131 0.12473565649261 -39.2634649410369 
! Gamma         108.931841286248 3779.4569693368  110.3494658351   3789.27541730803 
! Port Impedance         50               0                50               0                
79                             0.113564971013176 -41.9893970843837 0.814125600120145 29.8081626593985 0.814125600120144 29.8081626593985 0.11393543567457 -41.3130461480311 
! Gamma         110.201536120077 3827.91830558352 111.632793267184 3837.85588208826 
! Port Impedance         50               0                50               0                
80                             0.102329314354455 -43.6462293162743 0.813376381282532 25.6011501695583 0.813376381282532 25.6011501695583 0.102764395443358 -42.9063262588905 
! Gamma         111.470890744427 3876.38495363503 112.915749835193 3886.44165119083 
! Port Impedance         50               0                50               0                
81                             0.0908381150268631 -44.6731048001333 0.812559514464423 21.3831487426039 0.812559514464422 21.3831487426039 0.0913527563626313 -43.8570705024629 
! Gamma         112.739931675923 3924.85700271934 114.198362978143 3935.03281523254 
! Port Impedance         50               0                50               0                
82                             0.0792612193456157 -44.7816382902726 0.811654980172588 17.1549653516149 0.81165498017259 17.1549653516149 0.0798758016199177 -43.8767031231926 
! Gamma         114.008684380389 3973.33454191932 115.48065903862  3983.62946466269 
! Port Impedance         50               0                50               0                
83                             0.0678443286939806 -43.5071224487323 0.810644762894822 12.9176052520712 0.810644762894822 12.9176052520712 0.0685866556900451 -42.506313058331 
! Gamma         115.277173347871 4021.81766018696 116.762663340142 4032.23168978259 
! Port Impedance         50               0                50               0                