! Touchstone file exported from HFSS 2024.2.0
!        File:           C:/Users/vaintrug/Documents/Ansoft_Workspace/Comparaison_Calculs_HFSS/1_VarPort.aedt
!        Generated:      03:22:17 PM Jan 21, 2025
!        Design:         1_NoDeembed_FacePortFree
!        Project:        1_VarPort
!        Setup:          Setup1
!        Solution:       Sweep
!
! Variables:
!        $Lenght = 1500um
!        $PortSize = 240um
!        Gap = 30um
!        Th = 2um
!        X_centralStrip = 20um
!        X_masse = 200um
!        Y_Sub = 1.5mm
!        Z_Box = 400um
!        Z_Sub = 200um
!
# GHz S MA R 50.000000
! Terminal data exported
! Port[1] = 1
! Port[2] = 2
1                              0.0211485142890816 62.9594676523021 0.989072968019741 -4.43306229737473 0.989072968019742 -4.43306229737472 0.021148135885046 62.9720099022941 
! Gamma         5.90029984881492 49.9570384371748 5.80414919187434 49.8458337514612 
! Port Impedance         50               0                50               0                
2                              0.0378765614050013 69.7724734981693 0.986536919636605 -8.76482102903434 0.986536919636605 -8.76482102903434 0.0378756106786437 69.7992353590423 
! Gamma         7.65622366497757 98.6300468031019 7.50581846763635 98.409153099344  
! Port Impedance         50               0                50               0                
3                              0.0549578543531176 70.0463239947406 0.984028867366332 -13.1006667911416 0.984028867366332 -13.1006667911416 0.0549571631708216 70.0882684884211 
! Gamma         9.08225090539745 147.317279930081 8.89018074816484 147.033938776987 
! Port Impedance         50               0                50               0                
4                              0.0718943844644188 68.1522719071506 0.981253150057619 -17.4343193388502 0.981253150057619 -17.4343193388502 0.0718950655309873 68.2094190444571 
! Gamma         10.4210627282686 196.061963678366 10.2055447303059 195.72090062483  
! Port Impedance         50               0                50               0                
5                              0.0884218510093483 65.3112792126603 0.978169311207078 -21.7600190283649 0.978169311207079 -21.7600190283649 0.0884249263841055 65.3837038974259 
! Gamma         11.7475709397257 244.835873311972 11.5160836285868 244.434958307136 
! Port Impedance         50               0                50               0                
6                              0.104370798833483 61.9881685712964 0.974794009297168 -26.073752732846 0.974794009297168 -26.073752732846 0.104377206116613 62.0760736118929 
! Gamma         13.085338852369  293.618311561511 12.8407067819883 293.155500781621 
! Port Impedance         50               0                50               0                
7                              0.119614525878976 58.3963237087915 0.971163608994712 -30.3725661359186 0.971163608994711 -30.3725661359186 0.119625136440404 58.500022195199  
! Gamma         14.441894753466  342.396679775794 14.1850606253255 341.870698499917 
! Port Impedance         50               0                50               0                
8                              0.134051234808096 54.6471273167301 0.967323543564875 -34.6542681522878 0.967323543564874 -34.6542681522878 0.134066864310397 54.7670295877994 
! Gamma         15.8188848565021 391.163154490646 15.549989463947  390.573347205358 
! Port Impedance         50               0                50               0                
9                              0.147597044701818 50.8043102401598 0.96332374567596 -38.9173082855253 0.963323745675959 -38.9173082855253 0.147618459793822 50.9409189496941 
! Gamma         17.2154798334645 439.912740458051 16.9343097319753 439.258882804046 
! Port Impedance         50               0                50               0                
10                             0.160182696032874 46.9068423658266 0.959215922819307 -43.1607136793538 0.959215922819306 -43.1607136793538 0.16021061993114 47.0607528405946 
! Gamma         18.6297237588388 488.642249538657 18.3359136293882 487.924413469428 
! Port Impedance         50               0                50               0                
11                             0.171751589142688 42.9797056327918 0.955051599201552 -47.3840437014526 0.955051599201553 -47.3840437014527 0.171786707374199 43.1516096802247 
! Gamma         20.0591554756287 537.349740216257 19.7522873076118 536.568203794115 
! Port Impedance         50               0                50               0                
12                             0.182258318815913 39.0394311087835 0.950880602725396 -51.5873469768801 0.950880602725397 -51.5873469768801 0.182301285672757 39.2301233677956 
! Gamma         21.5011331147002 586.034181725971 21.1807880501023 585.189367996921 
! Port Impedance         50               0                50               0                
13                             0.191667402769668 35.0971610540223 0.946749884268915 -55.7711161741915 0.946749884268915 -55.7711161741914 0.191718848700917 35.3075475638034 
! Gamma         22.9530197909777 634.695232416395 22.6188062031616 633.787666604169 
! Port Impedance         50               0                50               0                
14                             0.199952105633047 31.1604531543455 0.942702615909791 -59.9362398764125 0.942702615909793 -59.9362398764125 0.200012645660451 31.3915621393184 
! Gamma         24.4122951662807 683.333079904543 24.0638639618748 682.363358359087 
! Port Impedance         50               0                50               0                
15                             0.207093339062452 27.2344060003416 0.938777530195518 -64.0839523670908 0.938777530195518 -64.0839523670908 0.207163582258596 27.4874010293713 
! Gamma         25.8766227172092 731.948318053494 25.5136751951805 730.917084765998 
! Port Impedance         50               0                50               0                
16                             0.213078647287884 23.3223992439608 0.935008465630183 -68.2157825574745 0.935008465630183 -68.2157825574745 0.213159207380836 23.5985951699675 
! Gamma         27.3438881007672 780.541847937614 26.9661792519887 779.44977656985  
! Port Impedance         50               0                50               0                
17                             0.217901295093424 19.4266055746882 0.931424084296144 -72.3335031897263 0.931424084296143 -72.3335031897263 0.21799280230289 19.7274877325356 
! Gamma         28.8122175912883 829.114796541983 28.4195564936013 827.962576196232 
! Port Impedance         50               0                50               0                
18                             0.221559473513495 15.5483628513771 0.928047729221754 -76.4390812137378 0.928047729221755 -76.4390812137378 0.221662587818654 15.8756102381461 
! Gamma         30.2799825164899 877.668449436564 29.8722307950667 876.456773466359 
! Port Impedance         50               0                50               0                
19                             0.224055634103681 11.6884586178352 0.924897392103171 -80.5346299371489 0.924897392103172 -80.5346299371489 0.224171060256558 12.0439719831176 
! Gamma         31.7457937930835 926.204195228504 31.3228628375127 924.933752339948 
! Port Impedance         50               0                50               0                
20                             0.225395957441613 7.84735957416405 0.92198576613529 -84.6223632822139 0.921985766135289 -84.6223632822139 0.225524462188952 8.23329562487785 
! Gamma         33.2084897438068 974.723480251533 32.7703370898106 973.394947478845 
! Port Impedance         50               0                50               0                
21                             0.22558995669109 4.02540767989799 0.919320363505844 -88.7045522913232 0.919320363505844 -88.7045522913232 0.225732388865334 4.44422100220677 
! Gamma         34.6671195218833 1023.22777210702 34.213744767181  1021.84180940489 
! Port Impedance         50               0                50               0                
22                             0.224650213312987 0.222998667579282 0.916903682012382 -92.7834838756569 0.916903682012382 -92.7834838756569 0.224807527710362 0.677493475388379 
! Gamma         36.1209240301959 1071.71853095536 35.6523644890076 1070.27577703964 
! Port Impedance         50               0                50               0                
23                             0.222592238990749 -3.55924417005417 0.914733409998563 -96.8614217291126 0.914733409998563 -96.8614217291126 0.222765525306461 -3.06584960488951 
! Gamma         37.569315659689  1120.19718745232 37.0856419346545 1118.69825679911 
! Port Impedance         50               0                50               0                
24                             0.219434455587938 -7.32028879282292 0.912802663090088 -100.940569308115 0.912802663090089 -100.940569308115 0.219624974152856 -6.78428120664621 
! Gamma         39.0118579258941 1168.66512631091 38.5131695569492 1167.11060708531 
! Port Impedance         50               0                50               0                
25                             0.215198283442109 -11.0584926624882 0.911100249854024 -105.023034795293 0.911100249854024 -105.023034795293 0.215407510183105 -10.4755610943149 
! Gamma         40.4482456919848 1217.12367465916 39.934666963752  1215.51412741601 
! Port Impedance         50               0                50               0                
26                             0.209908327098704 -14.7713641971047 0.909610966495895 -109.1107980265  0.909610966495895 -109.1107980265  0.210138011136632 -14.1364681551158 
! Gamma         41.8782865075068 1265.57409424119 41.3499624802159 1263.91005128441 
! Port Impedance         50               0                50               0                
27                             0.203592647169389 -18.4552653671527 0.908315922892627 -113.205679438109 0.908315922892627 -113.205679438109 0.20384488589486 -17.7624635515118 
! Gamma         43.3018833472768 1314.01757677985 42.7589761670483 1312.29954207074 
! Port Impedance         50               0                50               0                
28                             0.196283107267909 -22.1050235273769 0.907192903660921 -117.309311187537 0.90719290366092 -117.309311187537 0.196560445943565 -21.3472482066432 
! Gamma         44.719018938602  1362.45524187267 44.1617044573454 1360.68369134813 
! Port Impedance         50               0                50               0                
29                             0.188015786562375 -25.7134038352727 0.906216768551856 -121.423110710536 0.906216768551857 -121.423110710536 0.188321352866193 -24.8821591579671 
! Gamma         46.1297417334486 1410.88813680177 45.5582064450504 1409.06351906726 
! Port Impedance         50               0                50               0                
30                             0.178831452589685 -29.270365270143 0.905359896180529 -125.548257074431 0.905359896180529 -125.548257074431 0.179169141887719 -28.3553171082726 
! Gamma         47.5341535102132 1459.3172378265  46.9485918095804 1457.43997508064 
! Port Impedance         50               0                50               0                
31                             0.16877609735175 -32.7619739143203 0.904592674018449 -129.685670589674 0.904592674018449 -129.685670589674 0.169150833246939 -31.750381923035 
! Gamma         48.9323985475353 1507.74345258093 48.3330103037729 1505.81394175022 
! Port Impedance         50               0                50               0                
32                             0.157901556655988 -36.1687585540309 0.903884035643743 -133.835996210314 0.903884035643743 -133.835996210314 0.158319666082325 -35.0446737751807 
! Gamma         50.3246542550313 1556.16762319089 49.7116426895603 1554.1862372205  
! Port Impedance         50               0                50               0                
33                             0.146266265694307 -39.4631285584447 0.903202043614332 -137.999591309448 0.903202043614331 -137.999591309448 0.14673603349145 -38.2062345861845 
! Gamma         51.7111231627212 1604.59052993651 51.0846930099963 1602.55761913602 
! Port Impedance         50               0                50               0                
34                             0.133936270346908 -42.6051521627217 0.902514513054414 -142.176518422391 0.902514513054414 -142.176518422391 0.134468784665426 -41.1890517248989 
! Gamma         53.092026114185  1653.01289520199 52.452382045887  1650.92878867773 
! Port Impedance         50               0                50               0                
35                             0.120986752165542 -45.5353328701785 0.901789667359218 -146.366543523835 0.901789667359218 -146.366543523835 0.121597239708764 -43.9249527701094 
! Gamma         54.4675965624674 1701.43538754728 53.8149418547014 1699.30039462721 
! Port Impedance         50               0                50               0                
36                             0.107504630682944 -48.1615823936213 0.900996813571837 -150.569140320095 0.900996813571837 -150.569140320095 0.108214654164095 -46.3091571448879 
! Gamma         55.8380758045598 1749.85862582759 55.1726112272409 1747.67303750429 
! Port Impedance         50               0                50               0                
37                             0.0935935335291747 -50.334225192306 0.900107021278876 -154.783500913542 0.900107021278876 -154.783500913542 0.0944347839175313 -48.1730123921841 
! Gamma         57.2037090717795 1798.28318323779 56.5256319697088 1796.04727356146 
! Port Impedance         50               0                50               0                
38                             0.0793843183129108 -51.794350452295 0.899093785677223 -159.008553005217 0.899093785677222 -159.008553005216 0.0804055163256505 -49.2290565400606 
! Gamma         58.5647423309917 1846.70959120339 57.8742458851555 1844.42361864339 
! Port Impedance         50               0                50               0                
39                             0.0650598383589022 -52.0572308182766 0.897933653139602 -163.242983592767 0.897933653139601 -163.242983592767 0.0663399806148689 -48.9519170292897 
! Gamma         59.9214197226908 1895.13834311924 59.2186923600838 1892.80255187527 
! Port Impedance         50               0                50               0                
40                             0.0509208726488654 -50.1214662639056 0.896606786495874 -167.485268849547 0.896606786495875 -167.485268849547 0.0525953509748523 -46.3016402573954 
! Gamma         61.2739815212993 1943.5698978641  60.5592064671071 1941.18451910453 
! Port Impedance         50               0                50               0                
41                             0.0375887712313537 -43.6819809901537 0.895097447597048 -171.73370962006 0.895097447597048 -171.73370962006 0.0398939909884857 -39.077484189622 
! Gamma         62.6226625489913 1992.00468308601 61.8960174880309 1989.56993613773 
! Port Impedance         50               0                50               0                
42                             0.0266942256333075 -27.3249931399683 0.893394376669089 -175.986471686687 0.893394376669089 -175.986471686687 0.0299448845327258 -22.9737713151244 
! Gamma         63.9676909757844 2040.44309826763 63.2293478202129 2037.9591917086  
! Port Impedance         50               0                50               0                
43                             0.0223719085027957 4.45504257539467 0.89149105146853 179.758370267039 0.891491051468529 179.758370267039 0.0262755938669334 4.47960447228936 
! Gamma         65.3092874258645 2088.88551755344 64.559412167765  2086.3526502621  
! Port Impedance         50               0                50               0                
44                             0.0278162295267433 34.3656441538697 0.889385814134915 175.5027862668   0.889385814134914 175.5027862668   0.0311416095358677 30.4127106029401 
! Gamma         66.6476643590327 2137.33229234432 65.8864169946401 2134.75065445199 
! Port Impedance         50               0                50               0                
45                             0.0389616041506435 48.8302020620665 0.887081859539258 171.24874363979  0.887081859539258 171.24874363979  0.0414807408216595 44.638234333573  
! Gamma         67.9830256641192 2185.78375366227 67.2105601779969 2183.15352746509 
! Port Impedance         50               0                50               0                
46                             0.0520397345001272 54.4166748943438 0.884587085411426 166.998160049214 0.884587085411426 166.998160049214 0.0540173551789187 50.8700643718195 
! Gamma         69.3155664250598 2234.24021434323 68.5320308296068 2231.56157511552 
! Port Impedance         50               0                50               0                
47                             0.0656424267528428 55.9742810025383 0.881913811050014 162.75285841983  0.881913811050014 162.75285841983  0.0672780896196537 53.0424753432392 
! Gamma         70.6454728426444 2282.70197097453 69.8510092540754 2279.97508774085 
! Port Impedance         50               0                50               0                
48                             0.0792229426606034 55.5380389548216 0.879078377457864 158.514525104068 0.879078377457864 158.514525104068 0.0806349976447325 53.0882100765051 
! Gamma         71.9729222603631 2331.1693056948  71.1676670142735 2328.39434192734 
! Port Impedance         50               0                50               0                
49                             0.0925121339432324 54.0050694927735 0.876100646815265 154.284672475763 0.876100646815264 154.284672475763 0.0937722803124343 51.9277735324832 
! Gamma         73.2980832888285 2379.64248780587 72.4821670752284 2376.81960206417 
! Port Impedance         50               0                50               0                
50                             0.105346445655086 51.8164613058075 0.87300342294418 150.0646069201   0.873003422944179 150.0646069201   0.106500663882894 50.0329220834158 
! Gamma         74.6211159969483 2428.12177521881 73.7946640255684 2425.25112173856 
! Port Impedance         50               0                50               0                
51                             0.117610754073692 49.2109881612796 0.869811816592103 145.855402929284 0.869811816592102 145.855402929284 0.118690258921711 47.6653661092145 
! Gamma         75.9421721599635 2476.60741576055 75.1053043323533 2473.68914499008 
! Port Impedance         50               0                50               0                
52                             0.129216422292647 46.3282936070826 0.866552579945943 141.65788374577  0.866552579945943 141.65788374577  0.130243515484825 44.9805829285578 
! Gamma         77.2613955464612 2525.0996483546  76.4142266464365 2522.13390743738 
! Port Impedance         50               0                50               0                
53                             0.140091767787429 43.2552309077053 0.86325343384561 137.472608721568 0.86325343384561 137.472608721568 0.141083120929159 42.0763240823649 
! Gamma         78.578922234582  2573.59870407223 77.7215621232987 2570.58563729091 
! Port Impedance         50               0                50               0                
54                             0.150177444016982 40.0485528937382 0.859942408985216 133.299867314308 0.859942408985216 133.299867314308 0.151146035156502 39.0169812494373 
! Gamma         79.8948809474352 2622.10480707381 79.0274347659731 2619.04455625446 
! Port Impedance         50               0                50               0                
55                             0.159423949012589 36.7468567330624 0.856647219254224 129.139679429263 0.856647219254224 129.139679429263 0.160380259471209 35.8466401443072 
! Gamma         81.2093934000902 2670.61817545422 80.3319617702963 2667.51088031717 
! Port Impedance         50               0                50               0                
56                             0.167790119208651 33.3772673432284 0.853394681673218 124.991801644119 0.853394681673218 124.991801644119 0.168742905245542 32.5964769016193 
! Gamma         82.5225746523597 2719.13902199815 81.6352538828282 2715.98482050261 
! Port Impedance         50               0                50               0                
57                             0.175242106131869 29.9593774829402 0.850210193480274 120.855738731096 0.850210193480273 120.855738731096 0.176198916389813 29.2891592065671 
! Gamma         83.834533462472  2767.66755484842 82.937415748855  2764.46658347324 
! Port Impedance         50               0                50               0                
58                             0.181752604727458 26.5076799716453 0.847117273138759 116.730759815739 0.847117273138759 116.730759815739 0.182720140570683 25.9415822426188 
! Gamma         85.145372633417  2816.20397811807 84.2385462591497 2812.95637212617 
! Port Impedance         50               0                50               0                
59                             0.187300225277272 23.0331336629909 0.844137168619613 112.615918479382 0.844137168619613 112.615918479382 0.188284601531616 22.566639618915  
! Gamma         86.4551893603082 2864.74849240856 85.5387388911875 2861.454386094   
! Port Impedance         50               0                50               0                
60                             0.191868959591553 19.5442132061022 0.841288533457211 108.510076114568 0.84128853345721 108.510076114568 0.192875901135914 19.174415344729  
! Gamma         87.7640755601559 2913.30129529567 86.8380820341982 2909.96082218786 
! Port Impedance         50               0                50               0                
61                             0.195447720957897 16.0476421381496 0.83858716886706 104.411927873745 0.83858716886706 104.411927873745 0.196482717932864 15.7730187959848 
! Gamma         89.0721181995982 2961.86258174941 88.1366593096057 2958.4758748128  
! Port Impedance         50               0                50               0                
62                             0.198029951359172 12.5489277878755 0.836045828689223 100.320030603602 0.836045828689223 100.320030603602 0.199098388306073 12.3691954298543 
! Gamma         90.3793996001857 3010.43254451573 89.434549875483  3006.99973630615 
! Port Impedance         50               0                50               0                
63                             0.199613295944632 9.052771315736   0.83367408305108 96.232832212336  0.83367408305108 96.232832212336  0.20072056577807 8.968795914077   
! Gamma         91.685997741758  3059.01137443899 90.7318287170377 3055.53259726919 
! Port Impedance         50               0                50               0                
64                             0.200199347206488 5.5634004582857  0.83147823635577 92.148701986539  0.831478236355769 92.148701986539  0.201350958389254 5.57715763251895 
! Gamma         92.9919865455749 3107.59926076651 92.0285669255246 3104.07464683112 
! Port Impedance         50               0                50               0                
65                             0.199793461739357 2.08485780401974 0.829461295394467 88.0659614248952 0.829461295394467 88.0659614248952 0.200995145711269 2.19943598903613 
! Gamma         94.2974361448887 3156.19639141308 93.3248319622427 3152.62607290911 
! Port Impedance         50               0                50               0                
66                             0.198404651810201 -1.37873070222091 0.827622983936627 83.9829152098158 0.827622983936627 83.9829152098158 0.19966247731499 -1.15908618320994 
! Gamma         95.6024131428462 3204.80295318946 94.6206879085744 3201.18706242428 
! Port Impedance         50               0                50               0                
67                             0.196045552951849 -4.8228860688418 0.82595980094062 79.8978819724064 0.82595980094062 79.8978819724064 0.197366054245148 -4.49268705857575 
! Gamma         96.9069808568596 3253.41913200701 95.9161957026445 3249.75780148582 
! Port Impedance         50               0                50               0                
68                             0.192732467781043 -8.24248485205993 0.824465120428437 75.8092245260325 0.824465120428437 75.8092245260325 0.194122794800226 -7.79486856915855 
! Gamma         98.2111995467579 3302.04511307538 97.2114133633129 3298.33847558096 
! Port Impedance         50               0                50               0                
69                             0.188485485649226 -11.6314228026972 0.82312933194998 71.7153792500446 0.823129331949979 71.7153792500446 0.189953586213638 -11.0579670083623 
! Gamma         99.5151266345956 3350.68108104315 98.5063961977348 3346.92926971458 
! Port Impedance         50               0                50               0                
70                             0.183328677934252 -14.9822039777729 0.821940021323901 67.6148842984592 0.821940021323901 67.6148842984592 0.184883525188797 -14.2726781547485 
! Gamma         100.81881690592  3399.32722016058 99.8011970009246 3395.53036854746 
! Port Impedance         50               0                50               0                
71                             0.177290370394282 -18.2854143634822 0.820882191874474 63.5064062831817 0.820882191874474 63.5064062831817 0.178942253510017 -17.4274513685243 
! Gamma         102.122322703869 3447.98371440051 101.095866241032 3444.1419565133  
! Port Impedance         50               0                50               0                
72                             0.170403498055159 -21.5290199379707 0.819938526590739 59.3887650576563 0.819938526590739 59.3887650576563 0.172164401442432 -20.5076869106974 
! Gamma         103.425694108598 3496.65074756866 102.390452231738 3492.76421793317 
! Port Impedance         50               0                50               0                
73                             0.162706056134356 -24.6973973445406 0.819089691474043 55.260956189278  0.819089691474044 55.2609561892779 0.164590163411408 -23.4946378101315 
! Gamma         104.728979105499 3545.32850341782 103.685001295457 3541.39733710035 
! Port Impedance         50               0                50               0                
74                             0.154241675714054 -27.7699519384483 0.818314679731174 51.122170678907  0.818314679731175 51.122170678907  0.15626605147756 -26.3638636421591 
! Gamma         106.032223743678 3594.01716571914 104.979557915207 3590.04149837254 
! Port Impedance         50               0                50               0                
75                             0.145060380681774 -30.7190862909145 0.817591195426653 46.9718114634499 0.817591195426653 46.9718114634499 0.147245909173776 -29.082993781977 
! Gamma         107.335472283753 3642.71691835798 106.274164876925 3638.69688623474 
! Port Impedance         50               0                50               0                
76                             0.135219633834223 -33.5071204489166 0.816896073729114 42.8095062260213 0.816896073729113 42.8095062260213 0.13759233429412 -31.6084056064176 
! Gamma         108.638767335934 3691.42794539943 107.568863401337 3687.36368538891 
! Port Impedance         50               0                50               0                
77                             0.124785876742535 -36.0814709722704 0.816205733039828 38.6351160500739 0.816205733039828 38.6351160500739 0.127378779041812 -33.8801606730306 
! Gamma         109.942149988294 3740.150431155   108.863693268487 3736.04208078803 
! Port Impedance         50               0                50               0                
78                             0.113836956178522 -38.3668425471317 0.815496652171993 34.4487394919458 0.815496652171994 34.4487394919458 0.116692818907284 -35.8140826104005 
! Gamma         111.245659928914 3788.88456024344 110.158692932148 3784.73225770779 
! Port Impedance         50               0                50               0                
79                             0.102466211535611 -40.2521113729956 0.814745863509276 30.2507117134172 0.814745863509276 30.2507117134172 0.105641508269767 -37.2890546095746 
! Gamma         112.549335555558 3837.63051763184 111.453899627968 3833.43440179144 
! Port Impedance         50               0                50               0                
80                             0.0907898093163611 -41.5674335239166 0.813931450883108 26.0415984157091 0.813931450883109 26.0415984157091 0.0943605783896345 -38.1262390620275 
! Gamma         113.853214082504 3886.38848870068 112.749349472882 3882.14869909084 
! Port Impedance         50               0                50               0                
81                             0.078960723891382 -42.0427844119819 0.813033038992848 21.8221844479316 0.813033038992848 21.8221844479316 0.0830308998489465 -38.0548348282474 
! Gamma         115.157331636593 3935.15865927736 114.045077558749 3930.87533611495 
! Port Impedance         50               0                50               0                
82                             0.0671969866095254 -41.2308322603856 0.812032259748204 17.5934571263236 0.812032259748204 17.5934571263236 0.0719088635245078 -36.6572086515519 
! Gamma         116.461723349363 3983.94121567912 115.341118038661 3979.61449986444 
! Port Impedance         50               0                50               0                
83                             0.0558417163525372 -38.3653461602309 0.810913180167742 13.3565844789334 0.810913180167743 13.3565844789333 0.0613827108222013 -33.2923597452689 
! Gamma         117.766423439954 4032.73634475136 116.637504207975 4028.36637786403 
! Port Impedance         50               0                50               0                