! Touchstone file exported from HFSS 2024.2.0
!        File:           C:/Users/vaintrug/Documents/Ansoft_Workspace/Comparaison_Calculs_HFSS/1_VarPort.aedt
!        Generated:      03:22:19 PM Jan 21, 2025
!        Design:         1_NoDeembed_FacePortFree
!        Project:        1_VarPort
!        Setup:          Setup1
!        Solution:       Sweep
!
! Variables:
!        $Lenght = 2000um
!        $PortSize = 250um
!        Gap = 30um
!        Th = 2um
!        X_centralStrip = 20um
!        X_masse = 200um
!        Y_Sub = 2mm
!        Z_Box = 400um
!        Z_Sub = 200um
!
# GHz S MA R 50.000000
! Terminal data exported
! Port[1] = 1
! Port[2] = 2
1                              0.0276256479773698 61.1701102381778 0.98541679417902 -5.89736891154401 0.985416794179019 -5.89736891154401 0.0276249110630819 61.1934054126269 
! Gamma         5.99149157105743 50.1000804321785 5.7958901130766  49.7290139669559 
! Port Impedance         50               0                50               0                
2                              0.0492407051279064 66.7830923106593 0.981916113858116 -11.6618041922425 0.981916113858116 -11.6618041922425 0.0492505972123339 66.8197208687808 
! Gamma         7.9002716378165  98.7825612359407 7.47517503897557 98.1945280890115 
! Port Impedance         50               0                50               0                
3                              0.0711044819464233 65.7245048159499 0.978334937601945 -17.4277971812576 0.978334937601945 -17.4277971812576 0.0711267058512734 65.7700283624989 
! Gamma         9.41694847741254 147.405849288529 8.84646625956261 146.728296914225 
! Port Impedance         50               0                50               0                
4                              0.092428656325987 62.4717450911901 0.974330989139209 -23.1842756245512 0.974330989139207 -23.1842756245512 0.0924637929992033 62.5268251295218 
! Gamma         10.8058279476456 196.082217087845 10.1530137694715 195.324057724712 
! Port Impedance         50               0                50               0                
5                              0.112773104208107 58.2740564684014 0.969894241106053 -28.9220571578716 0.969894241106053 -28.9220571578716 0.112822050701248 58.3394270856474 
! Gamma         12.1654331961466 244.79381396558  11.4563175604055 243.946140468878 
! Port Impedance         50               0                50               0                
6                              0.13184070796495 53.6067120881803 0.965092627726498 -34.6348755939418 0.965092627726498 -34.6348755939418 0.131904544001645 53.6828907317048 
! Gamma         13.5296571206546 293.519064806774 12.7742469992275 292.574198109937 
! Port Impedance         50               0                50               0                
7                              0.149407707780073 48.6881489861603 0.960021958871675 -40.3185506049915 0.960021958871675 -40.3185506049915 0.149487565796804 48.7755156847315 
! Gamma         14.9104042334619 342.243415201496 14.1120399619743 341.196663557113 
! Port Impedance         50               0                50               0                
8                              0.165299992789879 43.6323517525032 0.954788938245025 -45.9706383820009 0.954788938245024 -45.9706383820009 0.165396977073793 43.731219047049  
! Gamma         16.3112423407875 390.957487399451 15.4703723712607 389.806515931602 
! Port Impedance         50               0                50               0                
9                              0.179382870111017 38.5041814276958 0.949502089152608 -51.5902496111524 0.949502089152608 -51.5902496111524 0.179498004908643 38.6148400110019 
! Gamma         17.7321926354819 439.655193997773 16.847992974445  438.399315277709 
! Port Impedance         50               0                50               0                
10                             0.191554995753672 33.3427317112672 0.944265587027218 -57.1778992311181 0.944265587027218 -57.1778992311181 0.191689191439609 33.4654818794161 
! Gamma         19.1716483645279 488.332596841904 18.2427732340138 486.972254763831 
! Port Impedance         50               0                50               0                
11                             0.201743665342607 28.1724148659694 0.939174753919022 -62.7353460649827 0.939174753919023 -62.7353460649827 0.201897697756955 28.3075911463093 
! Gamma         20.6272485647617 536.987240952551 19.6522020828002 535.523657504511 
! Port Impedance         50               0                50               0                
12                             0.209900663373316 23.0087688351024 0.93431281306403 -68.2654144962678 0.934312813064029 -68.2654144962679 0.210075164018821 23.1567622161656 
! Gamma         22.0963232034998 585.617746372422 21.0736516363805 584.052677769564 
! Port Impedance         50               0                50               0                
13                             0.215998527622905 17.861785091915  0.929748693716257 -73.7718020573501 0.929748693716257 -73.7718020573501 0.216193983515796 18.0230657577958 
! Gamma         23.5761406514978 634.223538841672 22.5045330290072 632.55910257407  
! Port Impedance         50               0                50               0                
14                             0.220027288615931 12.7379918023322 0.925535713047909 -79.2588799363322 0.925535713047907 -79.2588799363322 0.220244051143   12.9131345998854 
! Gamma         25.0640530016091 682.804658238718 23.9423916588373 681.04320704768  
! Port Impedance         50               0                50               0                
15                             0.221991782679235 7.64188457023878 0.921710970369969 -84.7314930544921 0.921710970369969 -84.7314930544921 0.222230085239707 7.83159941227791 
! Gamma         26.5575827057684 731.361613699065 25.3849649091545 729.505641423659 
! Port Impedance         50               0                50               0                
16                             0.221909615179941 2.57701478172847 0.918295302717174 -90.1947648699011 0.918295302717174 -90.1947648699011 0.222169599867242 2.78218457398389 
! Gamma         28.0544724334833 779.89526903319  26.8302146492736 777.947339344862 
! Port Impedance         50               0                50               0                
17                             0.219809811283459 -2.45308228406808 0.9152936749719  -95.6539104127452 0.915293674971899 -95.6539104127452 0.220091565479897 -2.23135285556013 
! Gamma         29.5527104920318 828.406749912387 28.2763419998878 826.369441770106 
! Port Impedance         50               0                50               0                
18                             0.215732152795337 -7.44399154283717 0.912695908769178 -101.114059693216 0.912695908769177 -101.114059693216 0.216035757481386 -7.20431158058461 
! Gamma         31.0505393748509 876.897367786201 29.721789392867  874.77323386232  
! Port Impedance         50               0                50               0                
19                             0.209727166719442 -12.3894379977293 0.910477687684422 -106.580092847148 0.910477687684422 -106.580092847148 0.210052759637802 -12.1300434478903 
! Gamma         32.5464526828756 925.368557535535 31.1652336689495 923.160092637588 
! Port Impedance         50               0                50               0                
20                             0.20185670833438 -17.2800835219756 0.90860180660148 -112.056488079164 0.90860180660148 -112.056488079164 0.202204567296789 -16.9987172302607 
! Gamma         34.0391840851528 973.821826699407 32.6055730189756 971.531444362434 
! Port Impedance         50               0                50               0                
21                             0.192195070369338 -22.1018963073363 0.90701965735078 -117.547183662072 0.90701965735078 -117.547183662072 0.192565725479679 -21.7956388830297 
! Gamma         35.5276911129534 1022.2587147407  34.0419100310462 1019.88873022113 
! Port Impedance         50               0                50               0                
22                             0.180830557293531 -26.8337513752719 0.90567295798717 -123.055455788531 0.905672957987169 -123.055455788531 0.181224946853617 -26.4987771149605 
! Gamma         37.0111358810329 1070.68076081436 35.4735324733237 1068.23337948132 
! Port Impedance         50               0                50               0                
23                             0.167867506444665 -31.4436404924372 0.904495737723256 -128.583814764977 0.904495737723255 -128.583814764977 0.168287202174235 -31.0748562819705 
! Gamma         38.4888642856894 1119.08947894637 36.8998931874802 1116.56678884265 
! Port Impedance         50               0                50               0                
24                             0.15342885454666 -35.8822807056281 0.903416582964091 -134.133922775081 0.903416582964091 -134.133922775081 0.153876402328413 -35.4727779299238 
! Gamma         39.9603848499751 1167.48633936757 38.3205899772486 1164.8903073078  
! Port Impedance         50               0                50               0                
25                             0.137659637851503 -40.0715994594944 0.902361132268796 -139.706536965743 0.902361132268796 -139.706536965743 0.138139101548729 -39.6118012417705 
! Gamma         41.4253480227823 1215.87275511315 39.7353462420504 1213.20522547816 
! Port Impedance         50               0                50               0                
26                             0.120732540886518 -43.8824307839847 0.901254781082954 -145.301481785017 0.901254781082954 -145.301481785017 0.121250424574   -43.3587424263698 
! Gamma         42.8835265210598 1264.25007284856 41.1439927486274 1261.51276857677 
! Port Impedance         50               0                50               0                
27                             0.102858566766861 -47.0875036706785 0.900025523824362 -150.917654174144 0.900025523824362 -150.917654174144 0.103425488859825 -46.4802039439339 
! Gamma         44.3347970493208 1312.61956721296 42.5464508695139 1309.81409245838 
! Port Impedance         50               0                50               0                
28                             0.0843118140094779 -49.2516141788088 0.898606825982227 -156.553064267734 0.898606825982227 -156.553064267734 0.084945775791603 -48.5319961731097 
! Gamma         45.7791236283311 1360.98243792556 43.9427174074038 1358.11028196724 
! Port Impedance         50               0                50               0                
29                             0.065498153162218 -49.440340128636 0.89694038804423 -162.204912682945 0.89694038804423 -162.204912682945 0.0662313180799885 -48.5703164908428 
! Gamma         47.2165426025593 1409.33980906199 45.3328510581982 1406.40235112305 
! Port Impedance         50               0                50               0                
30                             0.0471859957853228 -45.3282574842714 0.894978642604808 -167.869703380696 0.894978642604807 -167.869703380696 0.0480779069314759 -44.2927089675038 
! Gamma         48.6471493402266 1457.69272996175 46.7169604961083 1454.69124470161 
! Port Impedance         50               0                50               0                
31                             0.0314528729031755 -30.3776434840016 0.892686821299049 -173.543388606691 0.892686821299048 -173.543388606691 0.0325871854373792 -29.4948381676952 
! Gamma         50.0710865669161 1506.04217740285 48.0951939895521 1502.97784074998 
! Port Impedance         50               0                50               0                
32                             0.0248046839490956 5.75251690516195 0.890044442876806 -179.221539920994 0.890044442876805 -179.221539920994 0.0259812845776237 4.92050267925757 
! Gamma         51.4885342336803 1554.38905863491 49.4677304605652 1551.26295387223 
! Port Impedance         50               0                50               0                
33                             0.0332478206449431 38.9240584100879 0.887046108072121 175.100462927221 0.887046108072121 175.100462927221 0.033938833823297 37.1910234569944 
! Gamma         52.8997008176241 1602.7342150048  50.8347718463902 1599.54733891554 
! Port Impedance         50               0                50               0                
34                             0.0492426471772765 51.5821271242296 0.883701537798409 169.427235145027 0.883701537798408 169.427235145027 0.0495739736743739 50.2143494410521 
! Gamma         54.3048159035588 1651.07842597316 52.1965366494518 1647.83169491277 
! Port Impedance         50               0                50               0                
35                             0.0671194738490088 54.8537657485101 0.880034852066299 163.763192709266 0.880034852066298 163.763192709266 0.0672589336855496 53.8175271092432 
! Gamma         55.7041239248025 1699.42241330517 53.5532545339279 1696.11666914934 
! Port Impedance         50               0                50               0                
36                             0.0851339377953479 54.354552472791  0.876083149292088 158.112371261084 0.876083149292088 158.112371261084 0.0851599766918433 53.5312339308166 
! Gamma         57.0978789344103 1747.76684533169 54.9051618424126 1744.40286122339 
! Port Impedance         50               0                50               0                
37                             0.102618954575884 52.0958943830729 0.871894500373353 152.478267327195 0.871894500373352 152.478267327195 0.102569237702713 51.4106077463221 
! Gamma         58.48634027178   1796.11234118099 56.2524979225939 1792.69082699766 
! Port Impedance         50               0                50               0                
38                             0.119219132614084 48.9058383680465 0.867525511670454 146.863709137782 0.867525511670455 146.863709137782 0.119113341822631 48.3133128927897 
! Gamma         59.8697690149126 1844.45947486072 57.5955021464353 1840.98108242494 
! Port Impedance         50               0                50               0                
39                             0.134699476953778 45.1782268678552 0.863038631396647 141.270761860705 0.863038631396646 141.270761860705 0.134548454502563 44.649666577093  
! Gamma         61.24842510401   1892.80877921234 58.9344115213868 1889.27410717241 
! Port Impedance         50               0                50               0                
40                             0.148886427363004 41.1225184001877 0.858499374149716 135.70066944181  0.858499374149716 135.70066944181  0.148696189809423 40.6384601075277 
! Gamma         62.6225650505969 1941.16074962741 60.2694588122552 1937.57034804199 
! Port Impedance         50               0                50               0                
41                             0.161645772868479 36.8599485470911 0.853973620967999 130.15383279136  0.853973620968   130.15383279136  0.161419461595851 36.4064531261234 
! Gamma         63.9924401337731 1989.51584756318 61.6008710884809 1985.87022214781 
! Port Impedance         50               0                50               0                
42                             0.172872708323491 32.4654109164938 0.84952512240296 124.629822000488 0.84952512240296 124.629822000488 0.172611624463317 32.0319423873186 
! Gamma         65.3582950147832 2037.87450379536 62.928868631835  2034.1741198861  
! Port Impedance         50               0                50               0                
43                             0.18248641251684 27.9876272289669 0.845213295711354 119.127418787247 0.845213295711354 119.127418787247 0.182190607693924 27.5658068176335 
! Gamma         66.720366702574  2086.23712146235 64.2536641407372 2082.4824076375  
! Port Impedance         50               0                50               0                
44                             0.190426500889011 23.4597122937981 0.841091370278898 113.644684477589 0.841091370278898 113.644684477589 0.190095135046419 23.0425455804862 
! Gamma         68.0788838097986 2134.60407884528 65.5754621872269 2130.79543029041 
! Port Impedance         50               0                50               0                
45                             0.196650375775508 18.9051346683233 0.837204902464598 108.179048503771 0.837204902464597 108.179048503771 0.196281943830846 18.486504768184  
! Gamma         69.4340660505306 2182.9757319231  66.8944588713939 2179.11351349914 
! Port Impedance         50               0                50               0                
46                             0.201131117679472 14.3413288342214 0.833590655286548 102.727412509913 0.833590655286549 102.727412509913 0.200723596735258 13.9156433802649 
! Gamma         70.7861239334698 2231.35241673697 68.2108416461827 2227.43696576698 
! Port Impedance         50               0                50               0                
47                             0.203855804106599 9.78205725754701 0.830275821142627 97.2862655731351 0.830275821142627 97.2862655731351 0.203406748231355 9.34398487558413 
! Gamma         72.1352586249337 2279.73445148738 69.5247892709522 2275.76608033437 
! Port Impedance         50               0                50               0                
48                             0.204824236542424 5.23909794285552 0.827277556920676 91.851806621562  0.827277556920676 91.851806621562  0.20433083288752 4.78335485588635 
! Gamma         73.4816619336194 2328.12213849253 70.836471875676  2324.10113688129 
! Port Impedance         50               0                50               0                
49                             0.204048087397753 0.723586112567484 0.824602799356822 86.4200707246925 0.824602799356822 86.4200707246925 0.203507179440223 0.244746680418228 
! Gamma         74.8255164024806 2376.51576592983 72.1460511050403 2372.44240305081 
! Port Impedance         50               0                50               0                
50                             0.201550483987109 -3.75277758685699 0.822248332506437 80.9870564437967 0.822248332506437 80.9870564437967 0.200958562005094 -4.26046601335956 
! Gamma         76.1669954852631 2424.91560942084 73.4536803305154 2420.79013585129 
! Port Impedance         50               0                50               0                
51                             0.197366042815294 -8.17648635295863 0.820201086644748 75.5488517948688 0.820201086644748 75.5488517948688 0.196719196631771 -8.71930122501511 
! Gamma         77.506263781199  2473.32193346751 74.7595049079268 2469.14458288967 
! Port Impedance         50               0                50               0                
52                             0.191541364158158 -12.5307878870937 0.818438656743822 70.1017565425176 0.818438656743822 70.1017565425176 0.190835187423318 -13.1157589960699 
! Gamma         78.8434773210095 2521.73499271778 76.0636624743754 2517.50598349495 
! Port Impedance         50               0                50               0                
53                             0.184136002602308 -16.7938366315165 0.81693003678412 64.6423985302982 0.81693003678412 64.6423985302981 0.183365430163796 -17.4290227855188 
! Gamma         80.1787838857903 2570.15503314038 77.3662832652221 2565.8745697059  
! Port Impedance         50               0                50               0                
54                             0.175223954446572 -20.9361254912261 0.815636571838042 59.1678415597368 0.815636571838041 59.1678415597367 0.174383002789376 -21.6309637327553 
! Gamma         81.5123233518931 2618.58229305327 78.66749045373   2614.25056718335 
! Port Impedance         50               0                50               0                
55                             0.164895767404021 -24.9166845042573 0.814513131561636 53.6756820442896 0.814513131561637 53.6756820442895 0.163977129736502 -25.6824396556558 
! Gamma         82.8442280471808 2667.0170040474  79.9674004921534 2662.63419600149 
! Port Impedance         50               0                50               0                
56                             0.15326152137634 -28.6771493221758 0.813509505373046 48.164131333653  0.813509505373045 48.1641313336531 0.152255938544808 -29.5274916754758 
! Gamma         84.1746231225141 2715.45939182474 81.2661234655052 2711.02567135509 
! Port Impedance         50               0                50               0                
57                             0.140455236422518 -32.1320500999674 0.812572010627676 42.6320803520844 0.812572010627678 42.6320803520844 0.139350513519586 -33.0837684239948 
! Gamma         85.5036269191413 2763.90967694134 82.5637634325312 2759.4252042091  
! Port Impedance         50               0                50               0                
58                             0.126641929473077 -35.1521525081223 0.81164529071371 37.0791431152732 0.81164529071371 37.0791431152732 0.125421381531829 -36.2259140587552 
! Gamma         86.8313513376155 2812.36807546604 83.8604187744425 2807.83300186144 
! Port Impedance         50               0                50               0                
59                             0.112030033073848 -37.5345192609972 0.810674261219224 31.5056758868728 0.810674261219224 31.5056758868728 0.110670006133657 -38.7552344195502 
! Gamma         88.1579022020594 2860.83479958016 85.1561825266618 2856.24926844581 
! Port Impedance         50               0                50               0                
60                             0.0968953957130662 -38.946282442857 0.809606141147883 25.9127693034051 0.809606141147883 25.9127693034051 0.095361347576596 -40.3413770418075 
! Gamma         89.4833796145642 2909.31005809771 86.4511427036316 2904.67420538377 
! Port Impedance         50               0                50               0                
61                             0.0816316953071397 -38.8157551755855 0.808392485470805 20.30221176148   0.808392485470805 20.30221176148   0.0798724643081113 -40.4051763762838 
! Gamma         90.8078782980204 2957.79405694354 87.7453826163534 2953.10801178765 
! Port Impedance         50               0                50               0                
62                             0.066863267509527 -36.1263772804748 0.806991118505112 14.6764237271283 0.806991118505112 14.6764237271283 0.0648056903537132 -37.8822738924982 
! Gamma         92.1314879322617 3006.28699957228 89.0389811706904 3001.55088480842 
! Port Impedance         50               0                50               0                
63                             0.0536985990811283 -29.1181680329936 0.805367858228081 9.03836430560326 0.805367858228081 9.03836430560326 0.0512601757689638 -30.8249253351638 
! Gamma         93.4542934703781 3054.78908733647 90.3320131584507 3050.00301995613 
! Port Impedance         50               0                50               0                
64                             0.0441785785676376 -15.5260525096387 0.803497922575622 3.39141325150065 0.803497922575622 3.39141325150065 0.0413742593921225 -16.4652355364277 
! Gamma         94.7763754482083 3103.30051982338 91.6245495321851 3098.46461138708 
! Port Impedance         50               0                50               0                
65                             0.0412071582536553 4.07445235686405 0.801366921611821 -2.26076658637235 0.801366921611821 -2.26076658637235 0.0383966224773869 4.85809687831114 
! Gamma         96.0978102736157 3151.82149514946 92.9166576677228 3146.93585213599 
! Port Impedance         50               0                50               0                
66                             0.0460146389359494 22.4208388114607 0.798971363970404 -7.91437983940294 0.798971363970404 -7.91437983940294 0.0436925710310833 24.4459378581332 
! Gamma         97.4186705058257 3200.35221022164 94.2084016101745 3195.4169343604  
! Port Impedance         50               0                50               0                
67                             0.0563680955280395 33.9434917605045 0.796318639872207 -13.5656545803118 0.796318639872207 -13.5656545803118 0.0546144524759481 36.1112807528563 
! Gamma         98.7390251174242 3248.89286097628 95.4998423120794 3243.90804951118 
! Port Impedance         50               0                50               0                
68                             0.0694285224228187 39.509820548795  0.793426482279655 -19.2109955736214 0.793426482279655 -19.2109955736214 0.0680930698978125 41.4017646916008 
! Gamma         100.058939746191 3297.44364258248 96.7910378509529 3292.40938853171 
! Port Impedance         50               0                50               0                
69                             0.083463689203556 41.3775310213555 0.790321947266935 -24.8471269444277 0.790321947266934 -24.8471269444277 0.0824006502983363 42.9464459315229 
! Gamma         101.378476927016 3346.00474962842 98.0820436406181 3340.92114199588 
! Port Impedance         50               0                50               0                
70                             0.0975541980589307 41.0643290264726 0.787039989285745 -30.4712172887201 0.787039989285743 -30.4712172887201 0.0966610651675816 42.3505514710074 
! Gamma         102.69769631686  3394.57637628605 99.3729126258705 3389.44350025608 
! Port Impedance         50               0                50               0                
71                             0.111179299529345 39.4295089552619 0.78362173244563 -36.0809816676577 0.783621732445631 -36.0809816676577 0.110385928994231 40.4800541804142 
! Gamma         104.016654901291 3443.15871646061 100.663695467958 3437.97665356233 
! Port Impedance         50               0                50               0                
72                             0.124011427238541 36.9604572489024 0.780112552657299 -41.674756706536 0.780112552657299 -41.674756706536 0.123267963573319 37.8131330051844 
! Gamma         105.33540719197  3491.75196391931 101.954440715716 3486.52079217799 
! Port Impedance         50               0                50               0                
73                             0.135825825093213 33.9454823877328 0.776560086985964 -47.2515469111889 0.776560086985965 -47.2515469111889 0.135094942061881 34.6281213454529 
! Gamma         106.654005410941 3540.35631241172 103.245194968619 3535.07610646937 
! Port Impedance         50               0                50               0                
74                             0.146459426865257 30.5635872635628 0.773012277239271 -52.8110421160034 0.773012277239271 -52.8110421160034 0.145711710355709 31.0960090318858 
! Gamma         107.972499661634 3588.97195576997 104.536003026947 3583.64278700422 
! Port Impedance         50               0                50               0                
75                             0.155790696519298 26.9311473671689 0.76951553744643 -58.3536075279587 0.76951553744643 -58.3536075279587 0.155001878295993 27.3271086565815 
! Gamma         109.290938092733 3637.59908800937 105.826908034766 3632.22102462443 
! Port Impedance         50               0                50               0                
76                             0.163728826976374 23.1271116427894 0.76611311298576 -63.8802490017108 0.76611311298576 -63.8802490017108 0.162878074508749 23.3957793802676 
! Gamma         110.609367048371 3686.23790340829 107.117951610905 3680.81101052165 
! Port Impedance         50               0                50               0                
77                             0.170207387387963 19.2072661690012 0.762843676141516 -69.3925569568989 0.762843676141516 -69.3925569568989 0.16927620111573 19.3542449007454 
! Gamma         111.92783120916  3734.88859659083 108.40917397372  3729.41293630404 
! Port Impedance         50               0                50               0                
78                             0.175180251675887 15.2127243527624 0.759740181741037 -74.89263272895  0.759740181741037 -74.89263272895  0.174151716261497 15.2407452017317 
! Gamma         113.246373725542 3783.55136259189 109.700614054755 3778.02699405502 
! Port Impedance         50               0                50               0                
79                             0.178618819449951 11.1752612507225 0.756828989230051 -80.3830012155015 0.756828989230051 -80.3830012155015 0.177477061197373 11.0846246505739 
! Gamma         114.565036340858 3832.22639692299 110.992309608327 3826.65337638195 
! Port Impedance         50               0                50               0                
80                             0.180510069927308 7.12087956378656 0.754129245151481 -85.8665135131648 0.754129245151481 -85.8665135131647 0.17923982941174 6.90971667896926 
! Gamma         115.883859506232 3880.91389563348 112.284297309129 3875.29227648107 
! Port Impedance         50               0                50               0                
81                             0.180855235878797 3.07238329190088 0.751652512581168 -91.346242946257 0.751652512581168 -91.346242946257 0.179441495044237 2.73677818182443 
! Gamma         117.202882488621 3929.61405535939 113.576612848773 3923.94388817605 
! Port Impedance         50               0                50               0                
82                             0.179669001894316 -0.948574654711238 0.749402631147039 -96.8253775560704 0.749402631147038 -96.8253775560703 0.178096619784266 -1.41457660355978 
! Gamma         118.522143471056 3978.32707338346 114.869291020671 3972.60840596117 
! Port Impedance         50               0                50               0                
83                             0.17697918967716 -4.91965793149147 0.747375791700968 -102.307111808471 0.747375791700968 -102.307111808471 0.17523250618336 -5.5241409803848 
! Gamma         119.841679646093 4027.05314766991 116.162365801836 4021.28602504775 
! Port Impedance         50               0                50               0                