! Touchstone file exported from HFSS 2024.2.0
!        File:           C:/Users/vaintrug/Documents/Ansoft_Workspace/Comparaison_Calculs_HFSS/1_VarPort.aedt
!        Generated:      03:22:17 PM Jan 21, 2025
!        Design:         1_NoDeembed_FacePortFree
!        Project:        1_VarPort
!        Setup:          Setup1
!        Solution:       Sweep
!
! Variables:
!        $Lenght = 1500um
!        $PortSize = 260um
!        Gap = 30um
!        Th = 2um
!        X_centralStrip = 20um
!        X_masse = 200um
!        Y_Sub = 1.5mm
!        Z_Box = 400um
!        Z_Sub = 200um
!
# GHz S MA R 50.000000
! Terminal data exported
! Port[1] = 1
! Port[2] = 2
1                              0.0204271146885057 62.1045036731847 0.989056793508019 -4.42194966286344 0.989056793508019 -4.42194966286344 0.0204272298780867 62.1240919200488 
! Gamma         6.03418182555362 50.1280574925493 6.05840980388298 50.0410220370304 
! Port Impedance         50               0                50               0                
2                              0.0363547828504783 69.3346097297633 0.986562026036728 -8.74365581338112 0.986562026036728 -8.74365581338112 0.0363568860102181 69.3708303599217 
! Gamma         7.87321491877008 98.8756364459262 7.89795324969371 98.6501245923881 
! Port Impedance         50               0                50               0                
3                              0.05267466349022 69.8133180845132 0.984111862412108 -13.0700538306962 0.984111862412108 -13.0700538306962 0.0526798829174806 69.8665934256377 
! Gamma         9.34017711661717 147.610821050474 9.37310702599175 147.266600316559 
! Port Impedance         50               0                50               0                
4                              0.0688772953483809 68.0336895201301 0.981414918969306 -17.3948356773   0.981414918969305 -17.3948356773   0.0688869053122071 68.1041840439447 
! Gamma         10.7005799452768 196.407538985546 10.7501501080205 195.937448080363 
! Port Impedance         50               0                50               0                
5                              0.0846994535921576 65.2648201924503 0.978430088272787 -21.7124668189814 0.978430088272787 -21.7124668189814 0.0847147003655513 65.352680673265  
! Gamma         12.0421728789796 245.238685752248 12.1088731074925 244.635449848376 
! Port Impedance         50               0                50               0                
6                              0.0999750315077948 61.9909402636299 0.97517152836098 -26.0191344646071 0.97517152836098 -26.0191344646072 0.0999971213226102 62.0963395982139 
! Gamma         13.3931683459189 294.081636667732 13.4754163186876 293.340919717142 
! Port Impedance         50               0                50               0                
7                              0.114580835720964 58.4344310817385 0.971672342800068 -30.3120437571734 0.971672342800068 -30.3120437571734 0.114610927312257 58.5575746400812 
! Gamma         14.7628115141202 342.922268389757 14.8590455290661 342.041668091268 
! Port Impedance         50               0                50               0                
8                              0.128418169116818 54.7113529664428 0.967974333859153 -34.5891225027379 0.967974333859153 -34.5891225027379 0.128457363729456 54.8524814246907 
! Gamma         16.1533865891939 391.751768715209 16.2625360874998 390.729891273211 
! Port Impedance         50               0                50               0                
9                              0.141405664528875 50.8881009501386 0.964123648788825 -38.8488996161703 0.964123648788825 -38.8488996161703 0.141454995539084 51.0474932065494 
! Gamma         17.5642729646907 440.564516232423 17.6857511074153 439.40044407798  
! Port Impedance         50               0                50               0                
10                             0.153475951571361 47.0052843205974 0.960168210236704 -43.0904436522163 0.960168210236705 -43.0904436522163 0.153536375233068 47.1832607105144 
! Gamma         18.9935410869395 489.356923927618 19.1271314789325 488.049940936041 
! Port Impedance         50               0                50               0                
11                             0.164573722204115 43.0889675748141 0.956155879574294 -47.3133195100563 0.956155879574294 -47.3133195100563 0.164646110205714 43.2858933152049 
! Gamma         20.4386755626097 538.126794982954 20.5844192505843 536.676251722647 
! Port Impedance         50               0                50               0                
12                             0.174654327332767 39.15644685871   0.952133038667011 -51.5175482445149 0.952133038667012 -51.5175482445149 0.174739461376618 39.3727358126446 
! Gamma         21.8969450014111 586.872937295196 22.055051490419  585.278188235638 
! Port Impedance         50               0                50               0                
13                             0.183682586063457 35.2194422651057 0.948143479982546 -55.7035651441419 0.948143479982544 -55.703565144142 0.183781154395265 35.4555609737553 
! Gamma         23.3656092980758 635.594911673634 23.5363920453536 633.855288790983 
! Port Impedance         50               0                50               0                
14                             0.191631698586526 31.2859763739336 0.94422755406328 -59.8721752277324 0.94422755406328 -59.8721752277324 0.191744294276225 31.5424485618892 
! Gamma         24.8420422473718 684.292853189676 25.0258734265236 682.407657555288 
! Port Impedance         50               0                50               0                
15                             0.198482235864799 27.3615438609041 0.940421539334607 -64.0245068060389 0.940421539334607 -64.0245068060388 0.198609356555123 27.6389554622345 
! Gamma         26.3238047456969 732.967335645842 26.5210841866164 730.935837567124 
! Port Impedance         50               0                50               0                
16                             0.204221210113935 23.4498787452894 0.936757202705021 -68.1619641827851 0.936757202705021 -68.1619641827851 0.20436325895842 23.7488836803198 
! Gamma         27.8086864196114 781.619263953499 28.0198205483139 779.440707028822 
! Port Impedance         50               0                50               0                
17                             0.208841239314397 19.5534835790765 0.933261520316899 -72.2861805215458 0.933261520316898 -72.2861805215458 0.208998526838072 19.8748104156493 
! Gamma         29.2947258589416 830.249786664952 29.5201136198995 827.923393134276 
! Port Impedance         50               0                50               0                
18                             0.212339818774121 15.6740129474105 0.929956529311527 -76.3989716997594 0.929956529311526 -76.3989716997594 0.212512565463394 16.0184727570252 
! Gamma         30.7802159051223 878.860223965891 31.0202395068649 876.385200395248 
! Port Impedance         50               0                50               0                
19                             0.21471870916473 11.8125659922873 0.926859284150252 -80.5022917135477 0.926859284150253 -80.5022917135476 0.214907048651531 12.1810616425756 
! Gamma         32.2636985178913 927.45200849477  32.518717536079  924.827551122712 
! Port Impedance         50               0                50               0                
20                             0.215983446135823 7.96992200127055 0.923981894662181 -84.598189960269 0.92398189466218 -84.598189960269 0.216187428949442 8.36345931437191 
! Gamma         33.7439524539639 976.026637260234 34.0143002705553 973.251936762959 
! Port Impedance         50               0                50               0                
21                             0.216142972321817 4.1467418190864  0.92133162723819 -88.6887705496739 0.921331627238191 -88.6887705496739 0.216362570282686 4.56644308230901 
! Gamma         35.2199763657317 1024.58563286593 35.5059582128523 1021.65987858846 
! Port Impedance         50               0                50               0                
22                             0.215209389174186 0.343751647215265 0.918911054942215 -92.7761536658059 0.918911054942214 -92.7761536658059 0.215444500626318 0.790872114374872 
! Gamma         36.6909691641121 1073.13051304133 36.9928613075832 1070.05289661406 
! Port Impedance         50               0                50               0                
23                             0.21319782334365 -3.43807719538898 0.916718246503481 -96.862438934551 0.916718246503481 -96.862438934551 0.213448279572755 -2.96212893882765 
! Gamma         38.1563091299445 1121.66276714296 38.4743588372972 1118.43248558025 
! Port Impedance         50               0                50               0                
24                             0.210126400226019 -7.19733967649944 0.914746987960666 -100.949670733906 0.914746987960667 -100.949670733906 0.210391973588521 -6.69097634982257 
! Gamma         39.615532833109  1170.18383860183 39.9499589055648 1166.80009690215 
! Port Impedance         50               0                50               0                
25                             0.206016316065201 -10.9319855375929 0.912987033926226 -105.03980539449 0.912987033926226 -105.03980539449 0.206296730591203 -10.3934092225129 
! Gamma         41.0683146290406 1218.69511240326 41.4193083171335 1215.15712576771 
! Port Impedance         50               0                50               0                
26                             0.200891998942084 -14.6390673590012 0.911424388087739 -109.134680295864 0.91142438808774 -109.134680295864 0.201186944496679 -14.0662288000606 
! Gamma         42.5144472642886 1267.19790661659 42.8821734460768 1263.50490226731 
! Port Impedance         50               0                50               0                
27                             0.194781348898603 -18.3144243304919 0.910041614445989 -113.235984929327 0.910041614445989 -113.235984929327 0.195090500435264 -17.7049704415647 
! Gamma         43.9538239083219 1315.69346730766 44.3384224672757 1311.84468597443 
! Port Impedance         50               0                50               0                
28                             0.187716048083511 -21.9522670297822 0.908818182005424 -117.345234083326 0.908818182005423 -117.345234083326 0.188039092202589 -21.3034722147579 
! Gamma         45.3864218103028 1364.18296607283 45.7880091071404 1360.17766321338 
! Port Impedance         50               0                50               0                
29                             0.179731934143477 -25.5446101883866 0.907730846071114 -121.463743393615 0.907730846071114 -121.463743393615 0.180068606178764 -24.8532851604193 
! Gamma         46.8122876399207 1412.66749962941 47.2309580749794 1408.50494639186 
! Port Impedance         50               0                50               0                
30                             0.170869434930348 -29.0804694313956 0.906754069053948 -125.592607595206 0.906754069053948 -125.592607595206 0.171219571407663 -28.3428380900085 
! Gamma         48.2315245149365 1461.14809101502 48.6673521074822 1456.82757494251 
! Port Impedance         50               0                50               0                
31                             0.161174072577555 -32.5446838381413 0.90586048266048 -129.732681888474 0.90586048266048 -129.732681888474 0.16153768648998 -31.7562140182813 
! Gamma         49.6442806541149 1509.62569187663 50.0973206286112 1505.14651745033 
! Port Impedance         50               0                50               0                
32                             0.150697064282934 -35.9161290763974 0.90502139163144 -133.884566885828 0.90502139163144 -133.884566885828 0.151074455020619 -35.0712952579744 
! Gamma         51.0507395389935 1558.10118567075 51.5210298890051 1553.46267464845 
! Port Impedance         50               0                50               0                
33                             0.139496084437568 -39.1649045840384 0.904207316894676 -138.048597657396 0.904207316894677 -138.048597657396 0.139888001815028 -38.2568482230071 
! Gamma         52.4511114842498 1606.57539132244 52.9386744998498 1601.77688293135 
! Port Impedance         50               0                50               0                
34                             0.12763632752761 -42.2477248189696 0.903388573143323 -142.224837381415 0.903388573143323 -142.224837381415 0.128044223140387 -41.2677574752547 
! Gamma         53.8456264733966 1655.0490673161  54.350470210241  1650.08991829489 
! Port Impedance         50               0                50               0                
35                             0.11519216668957 -45.1000187834775 0.902535872717664 -146.41307608683 0.902535872717663 -146.41307608683 0.115618591716389 -44.0368803712366 
! Gamma         55.2345281272385 1703.52291585449 55.7566478216458 1698.40250038438 
! Port Impedance         50               0                50               0                
36                             0.102250046834643 -47.6216612243709 0.901620944379578 -150.612834887797 0.901620944379577 -150.612834887797 0.102699306482147 -46.4603963756948 
! Gamma         56.6180686772112 1751.99758712951 57.1574480822196 1746.7152966529  
! Port Impedance         50               0                50               0                
37                             0.088914070286715 -49.6495724161637 0.900617152485131 -154.823375999379 0.90061715248513 -154.823375999379 0.0893933502678695 -48.3698364522791 
! Gamma         57.996504812931  1800.47368349573 58.5531174553111 1795.0289264563  
! Port Impedance         50               0                50               0                
38                             0.0753178681270997 -50.9011391974128 0.899500099403454 -159.043718660801 0.899500099403453 -159.043718660801 0.0758392733600378 -49.474820169983 
! Gamma         59.37009429254   1848.9517635274  59.9439046592068 1843.34396503139 
! Port Impedance         50               0                50               0                
39                             0.0616525439529534 -50.8470445622224 0.898248192159327 -163.272660898349 0.898248192159327 -163.272660898349 0.0622369654509501 -49.2360827633091 
! Gamma         60.7390932078776 1897.43234589852 61.330057846801  1891.66094730144 
! Port Impedance         50               0                50               0                
40                             0.0482407406175437 -48.398351839221 0.896843153417105 -167.508806838554 0.896843153417106 -167.508806838554 0.0489252462715618 -46.5603280534904 
! Gamma         62.103753813906  1945.91591305493 62.7118223454871 1939.98037151589 
! Port Impedance         50               0                50               0                
41                             0.0357603769713778 -41.0968458351173 0.895270457316758 -171.75059905198 0.895270457316759 -171.75059905198 0.0366092404624636 -39.0474242756999 
! Gamma         63.464322832641  1994.40291464515 64.0894388929579 1988.30270261981 
! Port Impedance         50               0                50               0                
42                             0.0259563785798757 -23.5974905959091 0.893519672388764 -175.996355178229 0.893519672388764 -175.996355178229 0.0270408203948924 -21.7708628049886 
! Gamma         64.8210401547546 2042.89377071669 65.4631422500382 2036.62837546165 
! Port Impedance         50               0                50               0                
43                             0.0227909089086523 7.51421819657838 0.891584696812467 179.755692122633 0.891584696812467 179.755692122633 0.0239658904220729 7.88062455922513 
! Gamma         66.1741378815908 2091.38887469146 66.8331601684348 2084.95779769111 
! Port Impedance         50               0                50               0                
44                             0.0285104612636879 34.8899940084481 0.889463875478383 175.507353015597 0.889463875478382 175.507353015597 0.0294444771681854 34.2927973188362 
! Gamma         67.5238396489974 2139.88859607172 68.1997126437635 2133.29135249921 
! Port Impedance         50               0                50               0                
45                             0.0392504184101417 48.281031930202  0.887159993385165 171.260437376116 0.887159993385165 171.260437376116 0.0399491390710947 47.7925558238216 
! Gamma         68.8703601771628 2188.3932829446  69.5630113890848 2181.62940108783 
! Port Impedance         50               0                50               0                
46                             0.0517624913586516 53.6004749992078 0.884680145476913 167.016712010176 0.884680145476912 167.016712010176 0.0523276807418408 53.399794783035  
! Gamma         70.2139050097292 2236.90326426002 70.9232595203794 2229.97228496132 
! Port Impedance         50               0                50               0                
47                             0.0647814722127363 55.1155808857388 0.882035488652473 162.777859491943 0.882035488652472 162.777859491943 0.0652801004253281 55.1647689506543 
! Gamma         71.5546704122423 2285.41885189799 72.2806513798467 2278.32032798624 
! Port Impedance         50               0                50               0                
48                             0.0777932638054348 54.6957958178702 0.879240886913316 158.54543982576  0.879240886913317 158.54543982576  0.0782649960949229 54.9457568603725 
! Gamma         72.8928433892539 2333.94034254799 73.6353725033425 2326.67383828831 
! Port Impedance         50               0                50               0                
49                             0.0905384423397792 53.1920618221367 0.876314465059373 154.320855996961 0.876314465059373 154.320855996961 0.0910083265426749 53.6072410284575 
! Gamma         74.2286017996462 2382.46801940281 74.9875996809068 2375.03310994538 
! Port Impedance         50               0                50               0                
50                             0.102857726910167 51.0317283200412 0.873277089660028 150.105324293092 0.873277089660027 150.105324293092 0.103342971381263 51.588405226809  
! Gamma         75.562114550447  2431.00215370417 76.3375011010457 2423.39842456267 
! Port Impedance         50               0                50               0                
51                             0.114638629718982 48.4494931876782 0.870151798053241 145.899850053009 0.870151798053241 145.899850053009 0.115152021122723 49.1321236431671 
! Gamma         76.8935418474141 2479.54300611101 77.685236555364  2471.77005264686 
! Port Impedance         50               0                50               0                
52                             0.125794450244747 45.5840221340488 0.866963196773438 141.705209271246 0.866963196773439 141.705209271246 0.126346154047676 46.3825813549484 
! Gamma         78.2230354921854 2528.09082794482 79.0309576998196 2520.14825486961 
! Port Impedance         50               0                50               0                
53                             0.136254995530558 42.5222020778003 0.863736850190568 137.52193624477  0.863736850190568 137.52193624477  0.136853562868528 43.4304787664513 
! Gamma         79.5507392068349 2576.64586231677 80.3748083321158 2568.53328321327 
! Port Impedance         50               0                50               0                
54                             0.145962040144973 39.3211207999645 0.860498678407269 133.350317232928 0.860498678407269 133.350317232928 0.146615005710827 40.3356416595197 
! Gamma         80.8767889839488 2625.20834511146 81.7169247183618 2616.92538198485 
! Port Impedance         50               0                50               0                
55                             0.154866871732538 36.0197623571031 0.857274380911656 129.190389909924 0.857274380911656 129.190389909924 0.155581130301948 37.1391106764021 
! Gamma         82.2013134482524 2673.77850589737 83.0574359175545 2665.32478872931 
! Port Impedance         50               0                50               0                
56                             0.162928816239773 32.645604678634  0.854088899378862 125.041948232215 0.854088899378862 125.041948232215 0.16371087437793 33.8699863199708 
! Gamma         83.5244342237045 2722.35656871072 84.3964641238839 2713.73173505693 
! Port Impedance         50               0                50               0                
57                             0.170114248740415 29.2185332824366 0.850965929705589 120.904552226509 0.850965929705589 120.904552226509 0.17097040409093 30.5495021178716 
! Gamma         84.846266304384  2770.94275278765 85.7341250137066 2762.14644737745 
! Port Impedance         50               0                50               0                
58                             0.176395858868739 25.7532681011451 0.847927490076113 116.777542132351 0.847927490076114 116.777542132351 0.177332337008209 27.193558198058  
! Gamma         86.1669184199653 2819.5372731984  87.0705280868479 2810.56914756057 
! Port Impedance         50               0                50               0                
59                             0.181752060700664 22.2609303411706 0.844993548862552 112.660056288047 0.844993548862552 112.660056288047 0.182775127697158 23.8143631327708 
! Gamma         87.4864933957098 2868.14034141304 88.4057770099141 2859.0000535356  
! Port Impedance         50               0                50               0                
60                             0.186166495313058 18.7500937187934 0.842181713586644 108.551052146601 0.842181713586643 108.551052146601 0.187282557689109 20.4215411286394 
! Gamma         88.8050885048807 2916.75216581793 89.7399699497686 2907.43937980322 
! Port Impedance         50               0                50               0                
61                             0.189627603220985 15.2275174249832 0.839506980139186 104.44932982789  0.839506980139186 104.44932982789  0.190843303515374 17.0229098795103 
! Gamma         90.1227958066789 2965.37295216534 91.0731999007214 2955.88733793093 
! Port Impedance         50               0                50               0                
62                             0.192128258349083 11.6986784225633 0.836981539985034 100.353557644089 0.836981539985035 100.353557644089 0.193450572657127 13.6250519899875 
! Gamma         91.4397024772839 3014.0029039721  92.4055549937695 3004.3441369556  
! Port Impedance         50               0                50               0                
63                             0.193665461992062 8.16817595671665 0.834614642190925 96.2622990882326 0.834614642190925 96.2622990882326 0.195101805099259 10.2337566541591 
! Gamma         92.7558911222249 3062.6422228839  93.7371188092136 3052.80998377724 
! Port Impedance         50               0                50               0                
64                             0.194240098152402 4.64005545431368 0.832412506702485 92.1740408220987 0.832412506702485 92.1740408220987 0.195798441868284 6.85438178195842 
! Gamma         94.0714400785354 3111.29110900476 95.0679706593897 3101.28508348479 
! Port Impedance         50               0                50               0                
65                             0.193856752239656 1.11808407619769 0.830378285343975 88.0872212532365 0.830378285343975 88.0872212532365 0.195545763158583 3.49217159370572 
! Gamma         95.3864237012861 3159.9497611625  96.3981858723921 3149.76963966931 
! Port Impedance         50               0                50               0                
66                             0.19252359467815 -2.39399820998866 0.828512067377373 84.0002593261116 0.828512067377373 84.0002593261116 0.194352798837787 0.15255634644664 
! Gamma         96.7009126353674 3208.61837718163 97.7278360553826 3198.26385468998 
! Port Impedance         50               0                50               0                
67                             0.190252330033916 -5.89223235593388 0.826810927036099 79.9115831898557 0.826810927036097 79.9115831898558 0.192232313935443 -3.1585429127299 
! Gamma         98.0149740742219 3257.29715409235 99.0569893464819 3246.76792991214 
! Port Impedance         50               0                50               0                
68                             0.187058211135561 -9.37218009748521 0.825269011159588 75.8196584236132 0.825269011159588 75.8196584236132 0.189200871532879 -6.43438199507625 
! Gamma         99.3286720046341 3305.98628834966 100.385710654982 3295.28206593623 
! Port Impedance         50               0                50               0                
69                             0.182960116817774 -12.8286294852999 0.823877665754556 71.7230155057808 0.823877665754556 71.7230155057808 0.185278975972995 -9.66700812831735 
! Gamma         100.642067434867 3354.68597600178 101.714061887177 3343.80646277661 
! Port Impedance         50               0                50               0                
70                             0.177980691564677 -16.2552405670089 0.822625600923216 67.6202762118758 0.822625600923215 67.6202762118757 0.180491300875527 -12.8467893430319 
! Gamma         101.955218614094 3403.39641285143 103.04210216084  3392.34132004457 
! Port Impedance         50               0                50               0                
71                             0.172146545920975 -19.6440963230096 0.821499094033527 63.5101786077975 0.821499094033527 63.5101786077975 0.174867009915194 -15.9618150944123 
! Gamma         103.268181235307 3452.11779460572 104.369888004256 3440.88683710992 
! Port Impedance         50               0                50               0                
72                             0.165488518874862 -22.9851079031514 0.820482231164919 59.3916002873998 0.820482231164919 59.3916002873998 0.168440185000984 -18.9971057703173 
! Gamma         104.581008626759 3500.85031700211 105.697473550402 3489.44321322903 
! Port Impedance         50               0                50               0                
73                             0.158042008500796 -26.2651962884312 0.819557186717172 55.2635794732142 0.81955718671717 55.2635794732142 0.161250388295189 -21.9335386132754 
! Gamma         105.893751933233 3549.59417592194 107.02491071131  3538.01064768605 
! Port Impedance         50               0                50               0                
74                             0.149847387242378 -29.467126791687 0.818704540546836 51.1253335795648 0.818704540546836 51.1253335795648 0.153343405146643 -24.7463491001247 
! Gamma         107.20646028261  3598.34956749882 108.352249348276 3586.58933989716 
! Port Impedance         50               0                50               0                
75                             0.140950537155757 -32.5677935992635 0.817903631098165 46.9762748162721 0.817903631098165 46.9762748162721 0.144772250690185 -27.4029878339176 
! Gamma         108.519180946478 3647.11668821813 109.67953742827  3635.17948952928 
! Port Impedance         50               0                50               0                
76                             0.131403575863899 -35.5356100274502 0.817132941736076 42.8160224100847 0.817132941736077 42.8160224100848 0.135598585106299 -29.8599826598929 
! Gamma         109.831959485786 3695.8957349839  111.006821172272 3683.78129657694 
! Port Impedance         50               0                50               0                
77                             0.12126591153604 -38.3263984425858 0.816370515909441 38.6444110280572 0.816370515909442 38.6444110280572 0.125894792877611 -32.0582381507632 
! Gamma         111.144839891161 3744.68690522624 112.334145193486 3732.39496146826 
! Port Impedance         50               0                50               0                
78                             0.110605898328421 -40.8766702458478 0.81559439496437 34.461495025856  0.81559439496437 34.461495025856  0.115747180928115 -33.9158401379331 
! Gamma         112.457864709605 3793.49039694798 113.661552625411 3781.02068514277 
! Port Impedance         50               0                50               0                
79                             0.0995036384246969 -43.0921746438781 0.814783070508968 30.2675482030467 0.814783070508968 30.2675482030467 0.105261118991755 -35.3168317495956 
! Gamma         113.771075168001 3842.30640880858 114.98908524825  3829.65866910608 
! Port Impedance         50               0                50               0                
80                             0.0880560761401935 -44.827467141227 0.813915941359029 26.0630588330545 0.81391594135903 26.0630588330545 0.0945696360495413 -36.0934974096714 
! Gamma         115.084511284232 3891.13514017327 116.316783594397 3878.30911553466 
! Port Impedance         50               0                50               0                
81                             0.0763869236528176 -45.8475725288975 0.812973763436403 21.84871985434   0.812973763436403 21.84871985434   0.0838482753672296 -35.9985483289551 
! Gamma         116.398211973299 3939.97679118287 117.644687064262 3926.97222730702 
! Port Impedance         50               0                50               0                
82                             0.0646674310580391 -45.7522406164624 0.811939079738042 17.6254142468431 0.811939079738041 17.6254142468431 0.0733412801945531 -34.6635729348887 
! Gamma         117.71221514501  3988.83156280611 118.972834016404 3975.64820809505 
! Port Impedance         50               0                50               0                
83                             0.05316322172951 -43.8201559741823 0.810796616819534 13.3941957757444 0.810796616819535 13.3941957757444 0.0634073035778607 -31.5477526575024 
! Gamma         119.026557797619 4037.69965688536 120.301261868637 4024.3372623975  
! Port Impedance         50               0                50               0                