! Touchstone file exported from HFSS 2024.2.0
!        File:           C:/Users/vaintrug/Documents/Ansoft_Workspace/Comparaison_Calculs_HFSS/1_VarPort.aedt
!        Generated:      03:22:16 PM Jan 21, 2025
!        Design:         1_NoDeembed_FacePortFree
!        Project:        1_VarPort
!        Setup:          Setup1
!        Solution:       Sweep
!
! Variables:
!        $Lenght = 1500um
!        $PortSize = 180um
!        Gap = 30um
!        Th = 2um
!        X_centralStrip = 20um
!        X_masse = 200um
!        Y_Sub = 1.5mm
!        Z_Box = 400um
!        Z_Sub = 200um
!
# GHz S MA R 50.000000
! Terminal data exported
! Port[1] = 1
! Port[2] = 2
1                              0.0208689582459422 62.6555760726229 0.989067831759293 -4.43124621559493 0.989067831759293 -4.43124621559492 0.0208685747687179 62.642077348316  
! Gamma         5.75966606126712 49.7101568267146 5.91567341427131 50.1004172298841 
! Port Impedance         50               0                50               0                
2                              0.0372666406940889 69.5818796263399 0.986518144412029 -8.7597963335415 0.986518144412029 -8.75979633354151 0.0372627478849435 69.5580952149456 
! Gamma         7.43847839102059 98.1479294263981 7.7527779403319  98.8340332956488 
! Port Impedance         50               0                50               0                
3                              0.0540160500069429 69.9446923983175 0.984021889892046 -13.0920880350361 0.984021889892046 -13.0920880350361 0.0540076269607411 69.9120026452989 
! Gamma         8.80046198965811 146.660067961722 9.2237033085187  147.549498349448 
! Port Impedance         50               0                50               0                
4                              0.0706341933742462 68.1132397682833 0.981274148710107 -17.4225197932075 0.981274148710106 -17.4225197932075 0.0706205470103604 68.0712609635278 
! Gamma         10.0983822413919 195.238606938005 10.5866333520747 196.322473905518 
! Port Impedance         50               0                50               0                
5                              0.0868588558897214 65.3184389394598 0.978229771804611 -21.7454449132785 0.978229771804611 -21.7454449132785 0.086839138201977 65.2667221005205 
! Gamma         11.3943352480476 243.845019067546 11.9289259722739 245.128607853579 
! Port Impedance         50               0                50               0                
6                              0.102521765017891 62.0316216280273 0.974902783741595 -26.0569074784906 0.974902783741595 -26.0569074784906 0.102495016636504 61.9697671559018 
! Gamma         12.7056591106785 292.45790280905  13.2792577829654 293.946220162802 
! Port Impedance         50               0                50               0                
7                              0.11749743158175 58.4698408166169 0.971327500674627 -30.3539999706381 0.971327500674627 -30.3539999706381 0.117462625655122 58.3974603689677 
! Gamma         14.0371583409487 341.065355721527 14.6472440323268 342.76152659895  
! Port Impedance         50               0                50               0                
8                              0.131685212063859 54.746610059402  0.96754748040453 -34.6345683919711 0.967547480404529 -34.6345683919711 0.131641276213056 54.6632945581312 
! Gamma         15.3892536263205 389.660265059494 16.0354299908582 391.565842576715 
! Port Impedance         50               0                50               0                
9                              0.145002216110073 50.9269747600608 0.963610850900469 -38.8970871801905 0.963610850900469 -38.8970871801905 0.144948042549788 50.8322738445342 
! Gamma         16.7605592244042 438.238173915219 17.4433855257269 440.353585436001 
! Port Impedance         50               0                50               0                
10                             0.157379961623885 47.0507726593993 0.959567578207405 -43.1405948357659 0.959567578207406 -43.1405948357658 0.157314411288723 46.9441803720919 
! Gamma         18.1488833761523 486.796275489394 18.8693256266515 489.121163075672 
! Port Impedance         50               0                50               0                
11                             0.168762403011361 43.1436008571415 0.955467529453384 -47.3646481705861 0.955467529453384 -47.3646481705861 0.168684306240328 43.0245439507751 
! Gamma         19.5516921607188 535.332891031457 20.310847846117  537.866349573377 
! Port Impedance         50               0                50               0                
12                             0.179104479648354 39.2224593219488 0.951358986653975 -51.5692797899154 0.951358986653976 -51.5692797899154 0.179012634520039 39.0902862878849 
! Gamma         20.966357201627  583.847165336947 21.7653106656598 586.587909465726 
! Port Impedance         50               0                50               0                
13                             0.188370871977339 35.2988741834062 0.947287490021586 -55.7549538422584 0.947287490021587 -55.7549538422584 0.188264040768266 35.1528438429779 
! Gamma         22.3903010130275 632.338867701661 23.2300461730684 635.285351465731 
! Port Impedance         50               0                50               0                
14                             0.196534860035196 31.3807388844161 0.943294954470952 -59.9225191696374 0.943294954470951 -59.9225191696374 0.196411764005365 31.2200078077543 
! Gamma         23.8210860559297 680.808248234414 24.7024862313466 683.95875312419  
! Port Impedance         50               0                50               0                
15                             0.203577260391126 27.4734630737976 0.939419020910803 -64.0731605489583 0.939419020910803 -64.0731605489583 0.20343657295451 27.2970711799527 
! Gamma         25.2564688505639 729.255926235821 26.1802382218976 732.608627505023 
! Port Impedance         50               0                50               0                
16                             0.209485447859325 23.5807285515362 0.935692608033191 -68.2083491403383 0.93569260803319 -68.2083491403383 0.209325786113478 23.3875823065188 
! Gamma         26.6944303820154 777.682799796446 27.6611285223388 781.235817119114 
! Port Impedance         50               0                50               0                
17                             0.214252476791984 19.7050127163677 0.932143631594566 -72.3297932141696 0.932143631594566 -72.3297932141696 0.214072391290722 19.4938652478126 
! Gamma         28.1331896723227 826.089970994746 29.1432242506581 829.841407554835 
! Port Impedance         50               0                50               0                
18                             0.217876316005477 15.8479698895827 0.928794859975295 -76.4393900136022 0.928794859975294 -76.4393900136022 0.217674278573246 15.6173972304491 
! Gamma         29.5712052435759 874.478683699261 30.6248397660997 878.426656333872 
! Port Impedance         50               0                50               0                
19                             0.220359207578304 12.0107240751922 0.925663877733122 -80.5391793154919 0.925663877733121 -80.5391793154919 0.220133596848937 11.7590965372597 
! Gamma         31.0071679210337 922.850272101459 32.1045325822168 926.992934361153 
! Port Impedance         50               0                50               0                
20                             0.221707154800559 8.19410664740014 0.92276313289424 -84.6312990274472 0.922763132894239 -84.6312990274472 0.221456239026516 7.91955409202778 
! Gamma         32.4399877600006 971.206118641393 33.5810919789717 975.541678223338 
! Port Impedance         50               0                50               0                
21                             0.221929540210591 4.39886147518259 0.92010004827934 -88.7179429565819 0.92010004827934 -88.7179429565819 0.221651456696088 4.0992308369631  
! Gamma         33.8687771017848 1019.54762026616 35.0535228767373 1024.07435180919 
! Port Impedance         50               0                50               0                
22                             0.221038871074504 0.625834016025995 0.917677181855745 -92.8013207566889 0.917677181855745 -92.8013207566889 0.220731601335222 0.298636954973237 
! Gamma         35.2928315193524 1067.87616185026 36.5210269283394 1072.59241595335 
! Port Impedance         50               0                50               0                
23                             0.219050646921322 -3.12384186486421 0.915492425603615 -96.8836199856857 0.915492425603615 -96.8836199856857 0.218711986330195 -3.4814940143054 
! Gamma         36.7116098704755 1116.19309589853 37.9829822315082 1121.09730507763 
! Port Impedance         50               0                50               0                
24                             0.21598334166727 -6.84854615222607 0.913539236467584 -100.966970190222 0.913539236467584 -100.966970190222 0.215610861858242 -7.24002395244148 
! Gamma         38.124714365043  1164.49972758073 39.4389227967702 1169.59040967241 
! Port Impedance         50               0                50               0                
25                             0.21185849165134 -10.5459493971656 0.911806896409231 -105.053408945556 0.911806896409233 -105.053408945556 0.211449493276577 -10.9752085776029 
! Gamma         39.5318713720254 1212.79730415298 40.8885185111727 1218.07306377092 
! Port Impedance         50               0                50               0                
26                             0.206700880025608 -14.2127456081399 0.910280801418331 -109.14484984258 0.910280801418332 -109.14484984258 0.206252332457133 -14.6844592289972 
! Gamma         40.9329133708308 1261.08700810381 42.3315561470954 1266.54653638521 
! Port Impedance         50               0                50               0                
27                             0.200538808184089 -17.8443164084182 0.908942781356608 -113.24305247763 0.908942781356609 -113.24305247763 0.200047271302452 -18.3640459392512 
! Gamma         42.3277623481222 1309.36995320023 43.7679217377343 1315.01202635286 
! Port Impedance         50               0                50               0                
28                             0.193404445764896 -21.4342902658036 0.907771453873681 -117.349594605619 0.907771453873681 -117.349594605619 0.1928659667678  -22.0087098782622 
! Gamma         43.7164147750995 1357.64718289229 45.1975845255132 1363.47065977419 
! Port Impedance         50               0                50               0                
29                             0.185334253873567 -24.9739418483229 0.906742616103646 -121.465846700446 0.906742616103646 -121.465846700447 0.184744228653474 -25.6111365667718 
! Gamma         45.0989282036539 1405.91967051376 46.6205825505423 1411.92348945884 
! Port Impedance         50               0                50               0                
30                             0.176369482033473 -28.4513449188428 0.905829677619073 -125.592949273979 0.905829677619073 -125.592949273979 0.175722465339421 -29.1612129723897 
! Gamma         46.47540947661   1454.18832083175 48.0370098840499 1460.37149598663 
! Port Impedance         50               0                50               0                
31                             0.166556751242765 -31.8501376155273 0.905004137039205 -129.731793384488 0.905004137039205 -129.731793384488 0.16584619119807 -32.6449423873512 
! Gamma         47.8460044470299 1502.45397259396 49.4470054385246 1508.81558992698 
! Port Impedance         50               0                50               0                
32                             0.155948757824662 -35.147662044126 0.904236102905145 -133.883004841729 0.904236102905145 -133.883004841729 0.155166615968728 -36.0428027051313 
! Gamma         49.2108891444076 1550.71740175207 50.8507432797664 1557.25661482983 
! Port Impedance         50               0                50               0                
33                             0.144605175930827 -38.3120616581239 0.903494856921557 -138.046932646475 0.903494856921558 -138.046932646475 0.143741369157931 -39.3271692132061 
! Gamma         50.5702622165654 1598.97932513108 52.2484242963623 1605.69535083497 
! Port Impedance         50               0                50               0                
34                             0.132593921158358 -41.2975774419524 0.902749454650208 -142.223642226796 0.902749454650208 -142.223642226796 0.131635477639348 -42.4581027554929 
! Gamma         51.9243385541037 1647.24040434357 53.6402691289448 1654.13251856713 
! Port Impedance         50               0                50               0                
35                             0.119993111502907 -44.0365950236413 0.901969355294977 -146.412913983752 0.901969355294976 -146.412913983752 0.11892285054527 -45.3761472656125 
! Gamma         53.2733439556416 1695.50124981147 55.02651220106   1702.56878324928 
! Port Impedance         50               0                50               0                
36                             0.106894437787187 -46.4255326152199 0.901125068689784 -150.614247597398 0.901125068689784 -150.614247597398 0.1056888247167  -47.9893509141128 
! Gamma         54.6175107000586 1743.76242477989 56.4073967458934 1751.00475882159 
! Port Impedance         50               0                50               0                
37                             0.093409527185949 -48.2983656421798 0.900188804173554 -154.826872405775 0.900188804173555 -154.826872405775 0.0920350349545192 -50.148387969378 
! Gamma         55.9570739292521 1792.02444923755 57.7831706918155 1799.44101203832 
! Port Impedance         50               0                50               0                
38                             0.0796830717284093 -49.3736747581132 0.899135103148798 -159.049764012802 0.899135103148798 -159.049764012802 0.0780897220418957 -51.5952204086087 
! Gamma         57.2922686930512 1840.28780369695 59.1540832963915 1847.8780664209  
! Port Impedance         50               0                50               0                
39                             0.0659225166119823 -49.1409751362395 0.897941434988691 -163.281667059767 0.897941434988692 -163.281667059767 0.0640319595394408 -51.8474180466778 
! Gamma         58.6233276135585 1888.55293278186 60.5203824313817 1896.31640605605 
! Port Impedance         50               0                50               0                
40                             0.0524723124723687 -46.6000904362528 0.896588734988121 -167.521123867762 0.896588734988121 -167.521123867762 0.0501559953212799 -49.9102427268773 
! Gamma         59.9504790253513 1936.8202485944  61.8823124193945 1944.75647918924 
! Port Impedance         50               0                50               0                
41                             0.0400188013786923 -39.6619128520396 0.8950618634017  -171.766508402953 0.8950618634017  -171.766508402953 0.0370683488404731 -43.5000764058388 
! Gamma         61.2739455513415 1985.09013386366 63.240112338103  1993.19870157731 
! Port Impedance         50               0                50               0                
42                             0.0301566804602044 -24.2688941872998 0.8933499664276  -176.016064774228 0.8933499664276  -176.016064774228 0.0263551064114146 -27.2664784786786 
! Gamma         62.5939430316785 2033.36294487417 64.5940147262521 2041.64345963768 
! Port Impedance         50               0                50               0                
43                             0.0261818404099123 2.23170557094175 0.891446723255134 179.732050758771 0.891446723255134 179.732050758771 0.0220360274020454 4.31113289450191 
! Gamma         63.9106797446854 2081.63901413217 65.9442446153288 2090.09111334557 
! Port Impedance         50               0                50               0                
44                             0.0304481255986864 28.2243120639756 0.889350467832559 175.47972546042  0.889350467832559 175.47972546042  0.0272838197585846 34.2916549887897 
! Gamma         65.2243558718408 2129.91865283642 67.2910188457686 2138.54199889709 
! Port Impedance         50               0                50               0                
45                             0.0402586637180455 42.9820090068307 0.887064179498222 171.228844806162 0.887064179498222 171.228844806162 0.0381775906854835 48.9050939449826 
! Gamma         66.5351631662135 2178.20215312904 68.6345456060198 2186.99643115802 
! Port Impedance         50               0                50               0                
46                             0.0523702828129857 49.5875029325431 0.884595342657675 166.981247561899 0.884595342657674 166.981247561899 0.0510000928493673 54.5883285119894 
! Gamma         67.8432847861344 2226.48979012872 69.9750241605219 2235.45470589553 
! Port Impedance         50               0                50               0                
47                             0.0652631207996004 51.9788256035182 0.881955681769785 162.738682625385 0.881955681769785 162.738682625385 0.0643526978738555 56.210353810978  
! Gamma         69.1488952487571 2274.78182378862 71.3126447323502 2283.91710181099 
! Port Impedance         50               0                50               0                
48                             0.0782854333503839 52.1538128025744 0.87916078354788 158.502768905369 0.879160783547881 158.502768905369 0.077692636519933 55.8229087286429 
! Gamma         70.4521605002343 2323.07850056188 72.6475885066101 2332.3838823724  
! Port Impedance         50               0                50               0                
49                             0.0911116195181247 51.0712623631632 0.876229623030494 154.274959370897 0.876229623030494 154.274959370897 0.0907533560662475 54.3310100706119 
! Gamma         71.7532380638004 2371.38005492104 73.9800277313676 2380.85529748411 
! Port Impedance         50               0                50               0                
50                             0.103548374257574 49.2230161147346 0.873184013706072 150.056510190376 0.873184013706073 150.056510190376 0.10337323546773 52.1795700080426 
! Gamma         73.0522772452299 2419.68671070052 75.3101258965228 2429.33158499046 
! Port Impedance         50               0                50               0                
51                             0.115464133425087 46.8816195219178 0.870048003963661 145.84845565123  0.870048003963662 145.84845565123  0.115438646780672 49.6093927186229 
! Gamma         74.3494193982321 2467.99868232249 76.6380379678778 2477.81297201757 
! Port Impedance         50               0                50               0                
52                             0.12676064266785 44.2086907973837 0.866847242758424 141.651589289005 0.866847242758424 141.651589289005 0.126862109170346 46.7613179514395 
! Gamma         75.6447982101365 2516.31617589231 77.9639106707231 2526.29967620041 
! Port Impedance         50               0                50               0                
53                             0.137360257704552 41.3056270498354 0.863608336601512 137.466451408535 0.863608336601512 137.466451408535 0.137572811742269 43.7229849994298 
! Gamma         76.9385400238285 2564.63939016856 79.2878827994769 2574.79190675985 
! Port Impedance         50               0                50               0                
54                             0.147199707632812 38.239065934372  0.860358218027143 133.293322944285 0.860358218027142 133.293322944285 0.147512034608027 40.5517246547526 
! Gamma         78.2307641703942 2612.96851743145 80.6100855540012 2623.28986548945 
! Port Impedance         50               0                50               0                
55                             0.15622673734903 35.0545121282089 0.857123542862031 129.132225404036 0.857123542862033 129.132225404036 0.156630691516707 37.2866078826433 
! Gamma         79.5215833053979 2661.30374426573 81.9306428840943 2671.79374762182 
! Port Impedance         50               0                50               0                
56                             0.164398119784255 31.7840470737248 0.853930130229861 124.982926478689 0.853930130229862 124.982926478689 0.164887856320235 33.9551868254074 
! Gamma         80.8111037613728 2709.64525225154 83.2496718484035 2720.30374260395 
! Port Impedance         50               0                50               0                
57                             0.171678357510132 28.4509085386029 0.850802455629127 120.844950781303 0.850802455629127 120.844950781303 0.172249772172837 30.5774694891384 
! Gamma         82.0994258829266 2757.99321858448 84.5672829674862 2768.82003480187 
! Port Impedance         50               0                50               0                
58                             0.178038751610725 25.072331250269  0.847763203900011 116.717595099965 0.847763203900011 116.717595099965 0.178689112368721 27.1683748294678 
! Gamma         83.3866443681262 2806.34781661388 85.8835805807881 2817.34280410702 
! Port Impedance         50               0                50               0                
59                             0.183456680941817 21.6613803261211 0.844832885700284 112.599947520368 0.844832885700284 112.599947520368 0.184184384405672 23.7393156437855 
! Gamma         84.6728485986695 2854.70921633236 87.1986631899733 2865.87222649928 
! Port Impedance         50               0                50               0                
60                             0.187915015064054 18.2281804215053 0.842029518408785 108.490909761006 0.842029518408785 108.490909761006 0.188719427534975 20.2992626018348 
! Gamma         85.9581229577559 2903.07758481142 88.5126238042072 2914.40847452281 
! Port Impedance         50               0                50               0                
61                             0.191401624331766 14.7807719218351 0.839368370254506 104.389222099577 0.839368370254506 104.389222099577 0.192282982971312 16.8554909652222 
! Gamma         87.2425471414992 2951.45308657079 89.8255502662882 2962.951717727   
! Port Impedance         50               0                50               0                
62                             0.193908970960579 11.3257321995157 0.836861764998229 100.293490303214 0.836861764998228 100.293490303214 0.1948683301142  13.4141299347218 
! Gamma         88.5261964543622 2999.8358839241  91.1375255694328 3011.50212305019 
! Port Impedance         50               0                50               0                
63                             0.195433775076452 7.86864759878154 0.834518943611429 96.2022140329117 0.834518943611428 96.2022140329117 0.196472988890725 9.98058916562897 
! Gamma         89.8091420915455 3048.22613726753 92.4486281633468 3060.05985515584 
! Port Impedance         50               0                50               0                
64                             0.195976754489665 4.41449171467695 0.832345979064849 92.113816246232  0.832345979064849 92.113816246232  0.197098491128664 6.55991123033558 
! Gamma         91.0914514107447 3096.62400534919 93.7589322452618 3108.62507673395 
! Port Impedance         50               0                50               0                
65                             0.195542438680215 0.967948135255329 0.830345740472894 88.0266731733453 0.830345740472894 88.0266731733453 0.196750224588066 3.15708421595532 
! Gamma         92.373188187967  3145.02964549169 95.0685080366758 3157.19794877082 
! Port Impedance         50               0                50               0                
66                             0.194139057818781 -2.46629392620529 0.828517903296839 83.9391444908671 0.828517903296839 83.9391444908671 0.195437353125558 -0.222659150302666 
! Gamma         93.6544128583155 3193.44321379944 96.3774220459676 3205.77863077233 
! Port Impedance         50               0                50               0                
67                             0.191778507173537 -5.88324740010267 0.826859003017152 79.8496033412625 0.826859003017152 79.8496033412625 0.193172815939492 -3.57353271557372 
! Gamma         94.9351827472264 3241.86486533412 97.6857373189761 3254.36728098066 
! Port Impedance         50               0                50               0                
68                             0.18847638672347 -9.27731574988138 0.825362530475702 75.7564658746052 0.825362530475703 75.7564658746052 0.189973408623807 -6.88885498422055 
! Gamma         96.2155522865642 3290.29475427122 98.9935136735196 3302.96405654704 
! Port Impedance         50               0                50               0                
69                             0.184252115484528 -12.6419366401912 0.824019067891459 71.6582199867938 0.82401906789146 71.6582199867938 0.185859949147925 -10.1606468290944 
! Gamma         97.4955732156935 3338.73303403169 100.30080792232  3351.56911369341 
! Port Impedance         50               0                50               0                
70                             0.179129120573984 -15.9691489639215 0.822816465222507 67.5534529219912 0.822816465222507 67.5534529219912 0.180857533624609 -13.3791337120547 
! Gamma         98.7752947732097 3387.17985740938 101.607674080325 3400.18260784754 
! Port Impedance         50               0                50               0                
71                             0.173135102972538 -19.2490392232789 0.821740057004345 63.4408773897998 0.821740057004345 63.4408773897998 0.17499589063245 -16.5321037474913 
! Gamma         100.054763877017 3435.63537666196 102.914163563075 3448.80469377087 
! Port Impedance         50               0                50               0                
72                             0.166302386350185 -22.4690027258279 0.820772919957715 59.3193558161538 0.820772919957716 59.3193558161537 0.168309850333755 -19.6040508035075 
! Gamma         101.334025288949 3484.09974361151 104.220325368382 3497.43552565992 
! Port Impedance         50               0                50               0                
73                             0.158668364045105 -25.6127206212096 0.819896171446465 55.1879223199837 0.819896171446465 55.1879223199837 0.160839958197043 -22.5749959621951 
! Gamma         102.613121772803 3532.57310971707 105.526206250509 3546.07525723402 
! Port Impedance         50               0                50               0                
74                             0.150276075560612 -28.6586954812536 0.819089308247665 51.0458019774979 0.819089308247665 51.0458019774979 0.152633287019672 -25.4188220729895 
! Gamma         103.892094239802 3581.05562614465 106.831850880299 3594.72404182417 
! Port Impedance         50               0                50               0                
75                             0.141174973824296 -31.5780871950049 0.818330584057907 46.8924269140373 0.818330584057907 46.8924269140373 0.143744542911941 -28.1008590215269 
! Gamma         105.170981885312 3629.54744381942 108.137301996112 3643.38203243833 
! Port Impedance         50               0                50               0                
76                             0.131421999956332 -34.3314113411325 0.817597422703619 42.7274487606314 0.817597422703619 42.7274487606313 0.134237635558902 -30.5742936651926 
! Gamma         106.449822314181 3678.04871348481 109.44260054456  3692.04938181662 
! Port Impedance         50               0                50               0                
77                             0.12108318754834 -36.8633323064562 0.816866862237769 38.5507470216757 0.816866862237769 38.5507470216757 0.124188018107127 -32.7746983160209 
! Gamma         107.728651661062 3726.55958573597 110.747785809922 3740.72624249453 
! Port Impedance         50               0                50               0                
78                             0.110236225546451 -39.0941564626026 0.816116023053452 34.3624329414991 0.816116023053451 34.3624329414991 0.113686352598684 -34.6114883258609 
! Gamma         109.00750469771  3775.08021106701 112.052895539763 3789.41276683137 
! Port Impedance         50               0                50               0                
79                             0.0989748341183442 -40.9053977095003 0.815322590998919 30.1628485259957 0.815322590998919 30.1628485259958 0.102844533258351 -35.9542928018178 
! Gamma         110.286414936626 3823.61073989154 113.357966053488 3838.10910706397 
! Port Impedance         50               0                50               0                
80                             0.0874167259316587 -42.1142915350651 0.814465304400611 25.9525604716265 0.814465304400611 25.9525604716265 0.0918060238655538 -36.6108841571849 
! Gamma         111.565414724808 3872.15132257355 114.663032351862 3886.81541532943 
! Port Impedance         50               0                50               0                
81                             0.0757190118461364 -42.4270308291409 0.813524432074425 21.7323488883338 0.813524432074425 21.7323488883338 0.0807642586832379 -36.2915521876124 
! Gamma         112.844535333068 3920.70210945532 115.968128213173 3935.53184369784 
! Port Impedance         50               0                50               0                
82                             0.064109859148695 -41.3506239640841 0.812482228078485 17.5031908533107 0.812482228078485 17.5031908533107 0.0699961473691851 -34.5545377551381 
! Gamma         114.12380703519  3969.26325086676 117.273286285063 3984.25854418886 
! Port Impedance         50               0                50               0                
83                             0.0529569758790739 -38.0299153350055 0.811323348268697 13.2662390146731 0.811323348268697 13.2662390146731 0.0599223652851296 -30.7389517556721 
! Gamma         115.403259184786 4017.83489714764 118.578538168739 4032.99566880372 
! Port Impedance         50               0                50               0                