! Touchstone file exported from HFSS 2024.2.0
!        File:           C:/Users/vaintrug/Documents/Ansoft_Workspace/Comparaison_Calculs_HFSS/1_VarPort.aedt
!        Generated:      03:22:19 PM Jan 21, 2025
!        Design:         1_NoDeembed_FacePortFree
!        Project:        1_VarPort
!        Setup:          Setup1
!        Solution:       Sweep
!
! Variables:
!        $Lenght = 2000um
!        $PortSize = 400um
!        Gap = 30um
!        Th = 2um
!        X_centralStrip = 20um
!        X_masse = 200um
!        Y_Sub = 2mm
!        Z_Box = 400um
!        Z_Sub = 200um
!
# GHz S MA R 50.000000
! Terminal data exported
! Port[1] = 1
! Port[2] = 2
1                              0.0275981204104533 61.1297407437022 0.985395117877591 -5.89908391893388 0.985395117877591 -5.89908391893388 0.0276028041661657 61.0861049214932 
! Gamma         5.96399972133693 50.140000402745  5.88903151287339 49.895270406687  
! Port Impedance         50               0                50               0                
2                              0.0490850098561214 66.6559636910648 0.981797511863783 -11.6581532944361 0.981797511863782 -11.6581532944361 0.0490762308095142 66.5742267802247 
! Gamma         7.77326698527537 98.9405561973631 7.63236207183683 98.5193241342346 
! Port Impedance         50               0                50               0                
3                              0.0707745647977394 65.6420861665313 0.978190853899299 -17.4171140573519 0.9781908538993  -17.4171140573519 0.0707461260874146 65.5325325023861 
! Gamma         9.22749352054362 147.739756959391 9.04693109586669 147.162653180416 
! Port Impedance         50               0                50               0                
4                              0.09194102416607 62.4447894442935 0.974190454520694 -23.1671998594292 0.974190454520695 -23.1671998594291 0.0918905162642866 62.3074963836113 
! Gamma         10.5837483543947 196.598154865343 10.3767753389782 195.865756495275 
! Port Impedance         50               0                50               0                
5                              0.112148134920073 58.2967045425079 0.969769859698297 -28.8992592306471 0.969769859698297 -28.8992592306471 0.112073100469466 58.1305405508178 
! Gamma         11.9238289692468 245.488376355644 11.6959170986887 244.59895186692  
! Port Impedance         50               0                50               0                
6                              0.13109802051195 53.6730556306364 0.964990659643148 -34.606944934169 0.964990659643148 -34.606944934169 0.13099577397082 53.4768706506995 
! Gamma         13.2738678026528 294.389012057443 13.0272037281575 293.341178122554 
! Port Impedance         50               0                50               0                
7                              0.148566429267097 48.7938606543714 0.959945275536145 -40.2860241270092 0.959945275536144 -40.2860241270091 0.148434190634183 48.5665510249725 
! Gamma         14.6424344103271 343.286848005038 14.3777399949376 342.07980849316  
! Port Impedance         50               0                50               0                
8                              0.164379076946359 43.774438355122  0.954738057552167 -45.9340155358502 0.954738057552166 -45.9340155358502 0.164214085792259 43.5148820792643 
! Gamma         16.0316153880994 392.173654543274 15.7489248985228 390.80709785127  
! Port Impedance         50               0                50               0                
9                              0.178401199196149 38.6806322294014 0.949475651757313 -51.5499931534371 0.949475651757311 -51.5499931534372 0.178200791611773 38.3876220784211 
! Gamma         17.4407613621142 441.044189173486 17.1397854038737 439.518163934231 
! Port Impedance         50               0                50               0                
10                             0.190531369348635 33.5522716738885 0.944260662356654 -57.1344287213213 0.944260662356654 -57.1344287213213 0.190293026532871 33.2244564421893 
! Gamma         18.8679756488421 489.895124424149 18.548285019227  488.209940401799 
! Port Impedance         50               0                50               0                
11                             0.200696758670184 28.414352930672  0.939187097201417 -62.689028540707 0.939187097201416 -62.6890285407071 0.200418133924473 28.0501819732586 
! Gamma         20.3107978715124 538.724451928472 19.9719216719807 536.880605854448 
! Port Impedance         50               0                50               0                
12                             0.208848999440076 23.2829117539582 0.934337111369948 -68.2165547649795 0.934337111369949 -68.2165547649794 0.208527927318156 22.8805770479454 
! Gamma         21.7665583676267 587.531123807196 21.4080380028604 585.529244136289 
! Port Impedance         50               0                50               0                
13                             0.214960481997286 18.1683952604488 0.929778811220033 -73.7206339238044 0.929778811220034 -73.7206339238044 0.214594971372947 17.7257657612015 
! Gamma         23.23257917302   636.314816292005 22.8539980179625 634.155621517531 
! Port Impedance         50               0                50               0                
14                             0.219021130930707 13.0777761604866 0.925564936690166 -79.2055590688974 0.925564936690165 -79.2055590688974 0.2186093423286  12.5923190827039 
! Gamma         24.7062938335903 685.075760187404 24.3072928061057 682.760026896518 
! Port Impedance         50               0                50               0                
15                             0.221035750577586 8.01600778141787 0.921732254877396 -84.6760918687481 0.921732254877397 -84.6760918687481 0.220575956830615 7.48469057047463 
! Gamma         26.1853193274355 733.814611084552 25.7656039048991 731.343149176669 
! Port Impedance         50               0                50               0                
16                             0.221022012225008 2.98713417127    0.918301513932274 -90.1372696379244 0.918301513932272 -90.1372696379244 0.220512540057854 2.40629911340635 
! Gamma         27.6674970951291 782.532345628497 27.2268389883454 779.905979025956 
! Port Impedance         50               0                50               0                
17                             0.219009118718252 -2.00475925389634 0.915277830851883 -95.594220728226 0.915277830851883 -95.594220728226 0.218448266874017 -2.63955898454087 
! Gamma         29.150912990984  831.230176595805 28.689148461319  828.449728246208 
! Port Impedance         50               0                50               0                
18                             0.215037145064362 -6.95462348338858 0.912651417512584 -101.051990422143 0.912651417512584 -101.051990422143 0.214423071757304 -7.64884242265739 
! Gamma         30.6339025095355 879.909482930218 30.1509286104315 876.975763206517 
! Port Impedance         50               0                50               0                
19                             0.209157022894468 -11.8554324392649 0.910398581741658 -106.515378665357 0.910398581741659 -106.515378665357 0.208487591049736 -12.6158299921359 
! Gamma         32.1150456611615 928.571752128043 31.6108152343958 925.485550055321 
! Port Impedance         50               0                50               0                
20                             0.201431115430037 -16.6969351971101 0.908482970001296 -111.988790698536 0.908482970001294 -111.988790698536 0.200703677299085 -17.5319878629403 
! Gamma         33.5931548496198 977.218533291032 33.0676708644971 973.980610006928 
! Port Impedance         50               0                50               0                
21                             0.19193432115003 -21.4639643016609 0.906857041845665 -117.476101826518 0.906857041845665 -117.476101826518 0.191145412491108 -22.3844501866533 
! Gamma         35.0672581510454 1025.8513993899  34.5205677897892 1022.46248349174 
! Port Impedance         50               0                50               0                
22                             0.180755656424218 -26.1339516585085 0.905463781146739 -122.980538046802 0.905463781146739 -122.980538046802 0.179900550680864 -27.1537995237428 
! Gamma         36.5365799574042 1074.47191756683 35.96876872987   1070.9327019909  
! Port Impedance         50               0                50               0                
23                             0.168000317104528 -30.6730230305271 0.904238653739814 -128.50457492858 0.904238653739814 -128.50457492858 0.167072354159243 -31.8105788820934 
! Gamma         38.0005203951646 1123.08162629699 37.4117064490786 1119.39276643872 
! Port Impedance         50               0                50               0                
24                             0.153792348600863 -35.0294591010528 0.903111814911143 -134.049857829475 0.903111814911143 -134.049857829475 0.152781884310667 -36.3094315410419 
! Gamma         39.458634566006  1171.68201836985 38.8489633497177 1167.84413119876 
! Port Impedance         50               0                50               0                
25                             0.138278366816863 -39.1220318198868 0.902010553307091 -139.617147001614 0.90201055330709 -139.617147001614 0.137171051728617 -40.5785733313952 
! Gamma         40.9106123899274 1220.27452879453 40.2802517192906 1216.28819277969 
! Port Impedance         50               0                50               0                
26                             0.121633540154624 -42.817716067697 0.900861932199758 -145.206291325587 0.900861932199757 -145.206291325587 0.120407340510642 -44.4994471827672 
! Gamma         42.3562595486937 1268.86052667366 41.7053951198713 1264.72628231702 
! Port Impedance         50               0                50               0                
27                             0.104073065925421 -45.8855775794609 0.899595557413498 -150.816234048452 0.899595557413498 -150.816234048452 0.102692763446104 -47.8639082843056 
! Gamma         43.7954798418956 1317.44131036256 43.1243112242658 1313.159661237   
! Port Impedance         50               0                50               0                
28                             0.0858783001617662 -47.8918891301194 0.898146368147239 -156.445052999016 0.898146368147239 -156.445052999016 0.084284552390132 -50.2742173348108 
! Gamma         45.2282591704732 1366.01810523122 44.5369962484788 1361.58951932389 
! Port Impedance         50               0                50               0                
29                             0.0674666336126266 -47.933129893531 0.896457317886129 -162.090036232541 0.896457317886127 -162.090036232541 0.0655525299715505 -50.876739633089 
! Gamma         46.6546511699891 1414.59206337839 45.9435110395106 1410.01697475315 
! Port Impedance         50               0                50               0                
30                             0.0496128667657255 -43.8727408292768 0.894481793444842 -167.747792045875 0.894481793444841 -167.747792045875 0.0471732068140278 -47.5315747272135 
! Gamma         48.0747645165655 1463.16426494023 47.343968799923  1458.44307550355 
! Port Impedance         50               0                50               0                
31                             0.0342698155869342 -30.2062208061448 0.892185616076179 -173.414389946178 0.892185616076179 -173.414389946178 0.0309545439427869 -33.9546946100477 
! Gamma         49.4887518278652 1511.73572048306 48.738524372797  1506.86880190598 
! Port Impedance         50               0                50               0                
32                             0.0269736214949545 1.39435616115728 0.88954848277408 -179.085526768603 0.889548482774081 -179.085526768603 0.0230679516017127 2.41881998101942 
! Gamma         50.8968000592761 1560.30737421018 50.1273650003079 1555.29506986785 
! Port Impedance         50               0                50               0                
33                             0.0335066921987054 33.7087096060982 0.88656473873208 175.243289995885 0.886564738732079 175.243289995885 0.0307973084386298 38.7337624207681 
! Gamma         52.2991222768788 1608.8801076988  51.5107024111288 1603.72273463202 
! Port Impedance         50               0                50               0                
34                             0.0482358285170751 48.038257983984  0.883243420321959 169.576551156157 0.883243420321959 169.576551156157 0.0466230073993012 52.2940435271944 
! Gamma         53.6959506723192 1657.45474395332 52.8887661279081 1652.1525947833  
! Port Impedance         50               0                50               0                
35                             0.065373402411292 52.4159832033837 0.879607565851252 163.918557286257 0.879607565851252 163.918557286257 0.0643551917349712 55.6766186709969 
! Gamma         55.0875306961204 1706.03205161244 54.2617978473127 1700.58539645644 
! Port Impedance         50               0                50               0                
36                             0.0828781642341574 52.5661220483659 0.875692850621814 158.27324273002  0.875692850621815 158.27324273002  0.0822009955915002 55.1448180494454 
! Gamma         56.4741161671431 1754.61274920378 55.6300467739476 1749.0218374558  
! Port Impedance         50               0                50               0                
37                             0.099966842088925 50.7138643189577 0.87154565505526 152.644021048479 0.87154565505526 152.644021048479 0.0995044133782079 52.8325456763369 
! Gamma         57.8559652398972 1803.19750931757 56.9937657852584 1797.46257141359 
! Port Impedance         50               0                50               0                
38                             0.116237465711001 47.7953846551013 0.867220712849954 147.033658965012 0.867220712849954 147.033658965012 0.115920774102668 49.59207738039   
! Gamma         59.2333371253065 1851.78696268408 58.3532083116582 1845.90821172212 
! Port Impedance         50               0                50               0                
39                             0.131433948296822 44.2583632282789 0.862778506079076 141.444183507307 0.862778506079076 141.444183507307 0.13122225001182 45.8213715243749 
! Gamma         60.6064894420088 1900.3817020319  59.7086258384667 1894.35933535226 
! Port Impedance         50               0                50               0                
40                             0.145372041076694 40.3408969966563 0.858282574994649 135.876824553237 0.858282574994649 135.876824553237 0.14523999433858 41.7295475516012 
! Gamma         61.9756761289105 1948.98228578298 61.0602659324419 1942.81648641914 
! Port Impedance         50               0                50               0                
41                             0.157911541903371 36.1805157524511 0.853796894416207 130.331992621473 0.853796894416208 130.331992621473 0.157842966352471 37.4366576590383 
! Gamma         63.3411458061484 1997.58924149606 62.4083707125226 1991.28017954166 
! Port Impedance         50               0                50               0                
42                             0.168943957378574 31.8619209109234 0.84938344059559 124.809289769534 0.84938344059559 124.809289769534 0.168928549956812 33.016446862661  
! Gamma         64.7031405432662 2046.20306910196 63.7531756974608 2039.75090299461 
! Port Impedance         50               0                50               0                
43                             0.178385995015113 27.4400013838239 0.845100038084347 119.307550003309 0.845100038084346 119.307550003309 0.178417484421304 28.5167108526731 
! Gamma         66.0618949466637 2094.82424387819 65.0949089709    2088.22912158619 
! Port Impedance         50               0                50               0                
44                             0.186175497958166 22.9518695538591 0.840998540870083 113.824904726639 0.840998540870083 113.824904726639 0.186250553506126 23.9698682619792 
! Gamma         67.4176355243131 2143.45321921985 66.4337905980217 2136.71527934772 
! Port Impedance         50               0                50               0                
45                             0.192268540253135 18.4236230558616 0.837123370506688 108.358868393557 0.837123370506688 108.358868393557 0.192386103844811 19.3988870063458 
! Gamma         68.7705802740999 2192.09042918855 67.770032265332  2185.20980200163 
! Port Impedance         50               0                50               0                
46                             0.196637188348689 13.874410734967  0.833510408973266 102.906439616586 0.833510408973266 102.906439616586 0.19679805973787 14.8208590643595 
! Gamma         70.1209384545378 2240.73629084091 69.1038370896808 2233.71309921267 
! Port Impedance         50               0                50               0                
47                             0.1992677475046  9.31905729038913 0.830186227095496 97.4642133398609 0.830186227095497 97.4642133398609 0.199474332371871 10.2493319377286 
! Gamma         71.4689105144988 2289.39120635389 70.4353995746146 2282.22556665322 
! Port Impedance         50               0                50               0                
48                             0.200159437623087 4.76990146498449 0.827167620363969 92.0285002293408 0.827167620363969 92.0285002293408 0.200415609881635 5.69597401744889 
! Gamma         72.8146881312405 2338.05556500632 71.764905672581  2330.74758790712 
! Port Impedance         50               0                50               0                
49                             0.199323489200136 0.238217774985067 0.824461422056761 86.5954499717752 0.824461422056761 86.5954499717752 0.199634543078791 1.1719022115994  
! Gamma         74.1584543560774 2386.72974494286 73.0925329483449 2379.27953617137 
! Port Impedance         50               0                50               0                
50                             0.196782662765532 -4.2645443342837 0.822064566837852 81.1611756732418 0.822064566837852 81.1611756732418 0.197155346027433 -3.31111606655406 
! Gamma         75.5003838261041 2435.41411480422 74.4184508013245 2427.82177585136 
! Port Impedance         50               0                50               0                
51                             0.192571193889144 -8.72552770279467 0.819964384733266 75.7218768867188 0.819964384733266 75.7218768867188 0.193013826143956 -7.73942007603441 
! Gamma         76.840643041308  2484.10903522439 75.7428207507919 2476.37466399811 
! Port Impedance         50               0                50               0                
52                             0.186735162763776 -13.1290719732369 0.818139113338148 70.273958970101  0.818139113338148 70.273958970101  0.187257855680862 -12.0960042197391 
! Gamma         78.1793906787222 2532.81486018133 77.0657967575224 2524.93855159486 
! Port Impedance         50               0                50               0                
53                             0.17933328997973 -17.4549476800355 0.81655862352546 64.8141464702835 0.81655862352546 64.8141464702835 0.179948302499306 -16.3586442022786 
! Gamma         79.5167779444058 2581.53193824034 78.3875255714959 2573.51378478722 
! Port Impedance         50               0                50               0                
54                             0.170438178893231 -21.6759135983374 0.815185358991829 59.3395880658597 0.81518535899183 59.3395880658597 0.171160464527409 -20.4972815570328 
! Gamma         80.852948943214  2630.26061368347 79.7081471060107 2622.10070596511 
! Port Impedance         50               0                50               0                
55                             0.160138077060142 -25.7540914647346 0.813975491310422 53.8479503415094 0.813975491310422 53.8479503415094 0.160986118798737 -24.4701407971696 
! Gamma         82.1880410638967 2679.00122756194 81.0277948196249 2670.69965477437 
! Port Impedance         50               0                50               0                
56                             0.148539349696103 -29.6352595704839 0.812880288715072 48.3374973857625 0.812880288715073 48.3374973857625 0.149536442830821 -28.2176576471365 
! Gamma         83.5221853730151 2727.75411864716 82.3465961054083 2719.3109690413  
! Port Impedance         50               0                50               0                
57                             0.135770123768646 -33.2393763986921 0.811847688167929 42.8071529819429 0.81184768816793 42.8071529819429 0.13694637971072 -31.6525231586716 
! Gamma         84.8555070109879 2776.51962430778 83.6646726812747 2767.93498563621 
! Port Impedance         50               0                50               0                
58                             0.121986153052633 -36.4439887469301 0.810824046524251 37.2565421290404 0.810824046524252 37.2565421290404 0.123381696344674 -34.6425881538625 
! Gamma         86.1881255844484 2825.29808134067 84.9821409805712 2816.57204126433 
! Port Impedance         50               0                50               0                
59                             0.107381327672822 -39.0535386459763 0.809756028900435 31.6860088387058 0.809756028900434 31.6860088387058 0.109051502652652 -36.9801311374468 
! Gamma         87.5201555598662 2874.0898267159  86.2991125343497 2865.2224731993  
! Port Impedance         50               0                50               0                
60                             0.0922086415446282 -40.7392333270141 0.808592572522607 26.0966077311586 0.808592572522607 26.0966077311586 0.0942325634166101 -38.3241948892931 
! Gamma         88.8517066438294 2922.89519829167 87.6156943491672 2913.88661998358 
! Port Impedance         50               0                50               0                
61                             0.0768264029684169 -40.9147219551069 0.807286845178405 20.4900678929563 0.807286845178405 20.4900678929563 0.0793204536543264 -38.0893447547941 
! Gamma         90.1828841591401 2971.71453548037 88.9319892748202 2962.56482206952 
! Port Impedance         50               0                50               0                
62                             0.0618094955612797 -38.4727254933654 0.805798102054249 14.86872877737   0.805798102054249 14.86872877737   0.0649437864939578 -35.2377034384411 
! Gamma         91.51378940981   3020.54817987571 90.2480963629546 3011.25742244542 
! Port Impedance         50               0                50               0                
63                             0.0482309642420856 -31.2932493164356 0.804093336541913 9.23544952520037 0.804093336541913 9.23544952520037 0.0522180372254194 -27.9925806671637 
! Gamma         92.8445200353997 3069.39647584287 91.5641112144786 3059.96476720815 
! Port Impedance         50               0                50               0                
64                             0.0382792461458992 -16.1260106135287 0.802148622118589 3.59349483367936 0.80214862211859 3.59349483367935 0.0431757552578279 -14.1638397281303 
! Gamma         94.1751703537534 3118.25977109468 92.8801263169109 3108.68720613813 
! Port Impedance         50               0                50               0                
65                             0.0354572344766114 6.8746435710377  0.799950055088031 -2.05359779746284 0.799950055088032 -2.05359779746283 0.0406134429940351 5.37723064246567 
! Gamma         95.5058316951735 3167.13841723556 94.196231370019  3157.42509323412 
! Port Impedance         50               0                50               0                
66                             0.0411672226818313 27.4875685958403 0.797494231464514 -7.70216315941584 0.797494231464515 -7.70216315941584 0.0455574801520107 23.321432684999  
! Gamma         96.8365927221585 3216.03277029743 95.5125136017802 3206.17878723525 
! Port Impedance         50               0                50               0                
67                             0.0523870767398511 39.1492368357688 0.794788223413412 -13.3485584793665 0.794788223413412 -13.3485584793665 0.0557584772765245 34.4836186229016 
! Gamma         98.1675397398624 3264.94319125174 96.829058072959  3254.94865215243 
! Port Impedance         50               0                50               0                
68                             0.0659425878700438 44.154984514684  0.791849057631049 -18.9893109036633 0.791849057631049 -18.9893109036633 0.0685027206641435 39.8412056245794 
! Gamma         99.4987569969981 3313.8700465221  98.1459479719402 3303.73505776177 
! Port Impedance         50               0                50               0                
69                             0.0801736773940123 45.4310080107864 0.78870273513992 -24.6212548367937 0.78870273513992 -24.6212548367937 0.0821454362224198 41.5936104442945 
! Gamma         100.830326974929 3362.81370848531 99.4632649006711 3352.53838011428 
! Port Impedance         50               0                50               0                
70                             0.0942682720472444 44.6281417018127 0.785382864415967 -30.2416524921627 0.785382864415967 -30.2416524921627 0.0958087326842721 41.2103968948467 
! Gamma         102.162330669282 3411.77455597127 100.781089150349 3401.35900204327 
! Port Impedance         50               0                50               0                
71                             0.107777827288228 42.6040729185981 0.781929003652443 -35.8482923604151 0.781929003652443 -35.8482923604151 0.108991897269855 39.5264440605037 
! Gamma         103.494847861426 3460.75297477281 102.099499970835 3450.19731366612 
! Port Impedance         50               0                50               0                
72                             0.12041915639701 39.8231320720248 0.778384820956825 -41.4395619646839 0.778384820956825 -41.4395619646839 0.121378348771123 37.0173250122855 
! Gamma         104.827957384177 3509.74935814312 103.418575832517 3499.0537128969  
! Port Impedance         50               0                50               0                
73                             0.131995277435954 36.5525801942129 0.774796182866181 -47.014493066544 0.774796182866182 -47.0144930665439 0.1327502398051  33.9653522202047 
! Gamma         106.161737378319 3558.76410731415 104.738394680168 3547.92860597025 
! Port Impedance         50               0                50               0                
74                             0.142361267603742 32.9555071273474 0.771209273037146 -52.572779187813 0.771209273037146 -52.5727791878131 0.142949366644527 30.5462329995787 
! Gamma         107.496265543282 3607.79763201647 106.059034183105 3596.82240796894 
! Port Impedance         50               0                50               0                
75                             0.151408006872811 29.1366939512343 0.767668826848061 -58.114766790547 0.767668826848061 -58.114766790547 0.15185790710257 26.8743409348951 
! Gamma         108.831619386051 3656.85035101508 107.380571980163 3645.73554337176 
! Port Impedance         50               0                50               0                
76                             0.159053568433331 25.1665922448442 0.764216547179779 -63.6414225826044 0.764216547179778 -63.6414225826044 0.159388056899299 23.027253865112  
! Gamma         110.16787645901  3705.92269265719 108.70308592067  3694.66844660583 
! Port Impedance         50               0                50               0                
77                             0.165238134082611 21.0946123848423 0.760889745044483 -69.1542801706986 0.760889745044483 -69.1542801706986 0.1654759114545  19.0596839362581 
! Gamma         111.505114602723 3755.01509544532 110.026654302747 3743.62156264242 
! Port Impedance         50               0                50               0                
78                             0.169920680192766 16.9569194685374 0.757720228708811 -74.6553696674107 0.757720228708811 -74.6553696674107 0.170077528048507 15.01178488271   
! Gamma         112.843412178342 3804.12800861654 111.351356109807 3792.59534758202 
! Port Impedance         50               0                50               0                
79                             0.173076659186747 12.7812831229535 0.754733448452556 -80.1471339449954 0.754733448452557 -80.1471339449954 0.17316622053797 10.9143741472496 
! Gamma         114.182848303524 3853.26189275313 112.677271247421 3841.59026928786 
! Port Impedance         50               0                50               0                
80                             0.174696329004897 8.59029958103572 0.751947892094999 -85.632335087409 0.751947892094999 -85.632335087409 0.174730642834373 6.79241951725242 
! Gamma         115.523503088174 3902.4172204207  114.004480777781 3890.60680803682 
! Port Impedance         50               0                50               0                
81                             0.174783576162904 4.40371153006766 0.749374719086903 -91.1139543310511 0.749374719086903 -91.1139543310511 0.174773452082667 2.66754716007182 
! Gamma         116.865457865664 3951.59447682363 115.333067158898 3939.64545719352 
! Port Impedance         50               0                50               0                
82                             0.173355166431146 0.240257735580761 0.747017617817709 -96.5950884607699 0.74701761781771 -96.5950884607699 0.173310453867669 -1.43997291259262 
! Gamma         118.2087954327   4000.79416049873 116.663114482797 3988.70672393182 
! Port Impedance         50               0                50               0                
83                             0.170440398459087 -3.88065730051884 0.744872870884769 -102.07884534925 0.74487287088477 -102.07884534925 0.170370186110575 -5.50945660205361 
! Gamma         119.553600285307 4050.01678404192 117.994708720216 4037.79112996932 
! Port Impedance         50               0                50               0                