! Touchstone file exported from HFSS 2024.2.0
!        File:           C:/Users/vaintrug/Documents/Ansoft_Workspace/Comparaison_Calculs_HFSS/1_VarPort.aedt
!        Generated:      03:22:17 PM Jan 21, 2025
!        Design:         1_NoDeembed_FacePortFree
!        Project:        1_VarPort
!        Setup:          Setup1
!        Solution:       Sweep
!
! Variables:
!        $Lenght = 1500um
!        $PortSize = 220um
!        Gap = 30um
!        Th = 2um
!        X_centralStrip = 20um
!        X_masse = 200um
!        Y_Sub = 1.5mm
!        Z_Box = 400um
!        Z_Sub = 200um
!
# GHz S MA R 50.000000
! Terminal data exported
! Port[1] = 1
! Port[2] = 2
1                              0.0210815759195054 62.8678439401044 0.989069002291976 -4.42859176819689 0.989069002291974 -4.42859176819689 0.0210813682557316 62.881882418207  
! Gamma         6.07609530728956 50.3056530871682 5.73085244390713 49.5814914338937 
! Port Impedance         50               0                50               0                
2                              0.0377348397564124 69.7277249608484 0.986539605382761 -8.75610357846402 0.986539605382761 -8.75610357846402 0.0377334665967025 69.7578173269902 
! Gamma         7.9052530008857  99.1734690083999 7.35548180814695 97.9613456047238 
! Port Impedance         50               0                50               0                
3                              0.0547448182790069 70.0225877735899 0.984037970690866 -13.0876878506819 0.984037970690866 -13.0876878506819 0.0547430440372871 70.0706110943929 
! Gamma         9.36329986349587 148.068672523643 8.69449178337179 146.425936791617 
! Port Impedance         50               0                50               0                
4                              0.0716120920318119 68.1414414941477 0.981271057808075 -17.4170924308148 0.981271057808075 -17.4170924308148 0.0716112380427122 68.2075017347907 
! Gamma         10.7267674744089 197.028299857409 9.97958348621374 194.953006387251 
! Port Impedance         50               0                50               0                
5                              0.0880731195450765 65.3096364067709 0.978198369926885 -21.7386130082694 0.978198369926884 -21.7386130082694 0.0880744536353982 65.3938080804863 
! Gamma         12.075689247891  246.019723858276 11.2657960580036 243.505031681456 
! Port Impedance         50               0                50               0                
6                              0.103959009726026 61.9936176767207 0.974836185731906 -26.0482666049998 0.974836185731905 -26.0482666049998 0.103963732539544 62.0961178411486 
! Gamma         13.4352411263485 295.020770382356 12.5682168392578 292.06197611994  
! Port Impedance         50               0                50               0                
7                              0.119143484283484 58.4075344011518 0.97122045216819 -30.3431178227432 0.97122045216819 -30.3431178227432 0.119152753648955 58.5287157502447 
! Gamma         14.8137200280295 344.018084236223 13.8908510694136 340.612806678158 
! Port Impedance         50               0                50               0                
8                              0.133525072376021 54.6631796337977 0.967396181526243 -34.6209882475106 0.967396181526243 -34.6209882475106 0.133540023218594 54.8035159361011 
! Gamma         16.2131454141537 393.003343962504 15.2338223803101 389.150942780551 
! Port Impedance         50               0                50               0                
9                              0.147020134694281 50.8245234173944 0.963412889666667 -38.8803353575967 0.963412889666667 -38.8803353575967 0.147041894886343 50.9846023759454 
! Gamma         17.6328443250413 441.97120254373  16.5956452700687 437.672264870618 
! Port Impedance         50               0                50               0                
10                             0.159559573649738 46.9306844019006 0.959321878676218 -43.1201901439015 0.959321878676218 -43.1201901439015 0.159589277848512 47.1112067697436 
! Gamma         19.070895628524  490.91822072769  17.9741142600943 486.174189245047 
! Port Impedance         50               0                50               0                
11                             0.171086877468261 43.0067423565374 0.955174286888256 -47.3401120227626 0.955174286888256 -47.3401120227626 0.171125680052295 43.2085256084996 
! Gamma         20.5248049776774 539.842279808512 19.3667221650749 534.655189456016 
! Port Impedance         50               0                50               0                
12                             0.18155666197375 39.0692960401677 0.951019583607022 -51.5401461891914 0.951019583607021 -51.5401461891914 0.181605749592398 39.2932815278199 
! Gamma         21.9918602061479 588.742227545352 20.7708866990491 583.114516208258 
! Port Impedance         50               0                50               0                
13                             0.190933407743508 35.1295367205786 0.946904394820828 -55.7207787544355 0.946904394820827 -55.7207787544355 0.190994011750202 35.3767999994545 
! Gamma         23.4693354196945 637.617643643677 22.1840851097276 631.552012478581 
! Port Impedance         50               0                50               0                
14                             0.199190293387017 31.1950589479638 0.942871606196187 -59.8828890110494 0.942871606196187 -59.8828890110494 0.199263702343071 31.4668232051316 
! Gamma         24.9546137913957 686.468670270643 23.6039372686314 679.967978767217 
! Port Impedance         50               0                50               0                
15                             0.206308104977633 27.270989761508  0.938959705410919 -64.0276996354878 0.938959705410919 -64.0276996354878 0.206395677435582 27.5686426331047 
! Gamma         26.4452618305562 735.295881607413 25.0282562567347 728.363067524718 
! Port Impedance         50               0                50               0                
16                             0.212274230348496 23.3607309734962 0.935202329162025 -68.1567260417409 0.935202329162026 -68.1567260417409 0.212377408181533 23.6858451903895 
! Gamma         27.9390721031133 784.10017906602  26.455076614172  776.738197075863 
! Port Impedance         50               0                50               0                
17                             0.21708175478395 19.4664722138284 0.931627981034527 -72.2717260098948 0.931627981034527 -72.2717260098948 0.21720207743179 19.82083080424   
! Gamma         29.4340843053796 832.882705191655 27.8826666495181 825.094480021005 
! Port Impedance         50               0                50               0                
18                             0.220728673222225 15.5895634931086 0.928259888103461 -76.3746504715861 0.928259888103462 -76.3746504715861 0.220867793332988 15.9751904492976 
! Gamma         30.9285911731887 881.644772580914 29.3095291998448 873.433163585098 
! Port Impedance         50               0                50               0                
19                             0.22321722953497 11.7307996722989 0.925115967175099 -80.4675960535513 0.925115967175101 -80.4675960535513 0.223376930635912 12.1499973331689 
! Gamma         32.4211337411941 930.387805216995 30.7343941298816 921.755580183811 
! Port Impedance         50               0                50               0                
20                             0.224553388604348 7.8906495212213  0.92220887562459 -84.5527597005737 0.92220887562459 -84.5527597005737 0.224735605620162 8.34604430836587 
! Gamma         33.9104893018365 979.11329053288  32.156205230511  970.063106997462 
! Port Impedance         50               0                50               0                
21                             0.224746441896542 4.06945109851453 0.919546126596288 -88.6323955279846 0.91954612659629 -88.6323955279846 0.22495328557152 4.56404974018587 
! Gamma         35.3956546370123 1027.82274094045 33.5741034773075 1018.3571334725  
! Port Impedance         50               0                50               0                
22                             0.223808743759437 0.267589223801822 0.91713025313183 -92.7087738913186 0.917130253131831 -92.7087738913186 0.224042530371691 0.804848326189639 
! Gamma         36.8758264937777 1076.51766343392 34.9874082727841 1066.6390358626  
! Port Impedance         50               0                50               0                
23                             0.221755572540411 -3.5143321066537 0.914959010508584 -96.7841425981794 0.914959010508586 -96.7841425981794 0.222018860743038 -2.93041932870694 
! Gamma         38.3503807338917 1125.1995361545  36.3955978793299 1114.91015772647 
! Port Impedance         50               0                50               0                
24                             0.218605108430806 -7.27531033349844 0.913025610295217 -100.860690165923 0.913025610295218 -100.860690165923 0.218900745697721 -6.6401049816595 
! Gamma         39.8188512875664 1173.86979099993 37.7982899609186 1163.17179556359 
! Port Impedance         50               0                50               0                
25                             0.214378518399348 -11.0137448830775 0.911318983244722 -104.940511042705 0.911318983244721 -104.940511042705 0.214709700455153 -10.321823908749 
! Gamma         41.2809096762046 1222.52980110919 39.1952228038247 1211.42518879758 
! Port Impedance         50               0                50               0                
26                             0.209100137445705 -14.7272015931879 0.909824071085116 -109.0255727698  0.909824071085117 -109.0255727698  0.209470485407187 -13.9721800748524 
! Gamma         42.7363456335081 1271.18087250347 40.5862377578975 1259.67151317243 
! Port Impedance         50               0                50               0                
27                             0.202797734845373 -18.4121191723106 0.908522149455155 -113.117685143682 0.908522149455155 -113.117685143682 0.203211396770484 -17.5864195203583 
! Gamma         44.1850491638755 1319.82423903904 41.9712630354284 1307.91187712505 
! Port Impedance         50               0                50               0                
28                             0.195502854332343 -22.0634260711007 0.907391185611399 -117.218471527403 0.907391185611399 -117.218471527403 0.195964640879802 -21.1579743355699 
! Gamma         45.6269942140167 1368.46105998098 43.3502991074333 1356.14732029934 
! Port Impedance         50               0                50               0                
29                             0.187251218705464 -25.6740195502421 0.906406235112661 -121.329342566456 0.906406235112661 -121.329342566456 0.187766787249019 -24.6778399946903 
! Gamma         47.0622240432514 1417.09241966336 44.7234056721388 1404.37881384884 
! Port Impedance         50               0                50               0                
30                             0.178083193078835 -29.2340305129994 0.905539881463834 -125.451472673618 0.905539881463834 -125.451472673618 0.178659301971535 -28.1336957038481 
! Gamma         48.4908382833495 1465.71932867999 46.0906901817868 1452.607262001   
! Port Impedance         50               0                50               0                
31                             0.168044309370189 -32.729748464624 0.904762721579244 -129.585779726074 0.904762721579244 -129.585779726074 0.168689176025896 -31.5086202551219 
! Gamma         49.9129816038904 1514.34272623993 47.452297880222  1500.83350462549 
! Port Impedance         50               0                50               0                
32                             0.157185870720013 -36.1419924512167 0.904043898097347 -133.732908510606 0.904043898097347 -133.732908510606 0.157909687243769 -34.7791542521833 
! Gamma         51.3288339134099 1562.96348335607 48.8084032077558 1549.05832037906 
! Port Impedance         50               0                50               0                
33                             0.145565686896126 -39.4435483967163 0.903351676940973 -137.893218485848 0.903351676940972 -137.893218485848 0.146381381802229 -37.9122721411923 
! Gamma         52.7386019528585 1611.58240653423 50.1592024721764 1597.28243034584 
! Port Impedance         50               0                50               0                
34                             0.133249056418376 -42.5949697649625 0.902654065330153 -142.066776456446 0.902654065330152 -142.066776456446 0.134173453601636 -40.8604674314342 
! Gamma         54.1425121524282 1660.20024183866 51.5049076698259 1645.50650184634 
! Port Impedance         50               0                50               0                
35                             0.120310246748286 -45.5373720091942 0.901919461803501 -146.253354713441 0.901919461803501 -146.253354713441 0.121365890372964 -43.5534291112073 
! Gamma         55.5408046161771 1708.81767907563 52.8457413074984 1693.73115239399 
! Port Impedance         50               0                50               0                
36                             0.106835024363204 -48.1793912523205 0.90111732601553 -150.452435125492 0.901117326015531 -150.452435125492 0.108053168584578 -45.883246553841 
! Gamma         56.9337281286092 1757.43535604261 54.1819321109732 1741.95695360891 
! Port Impedance         50               0                50               0                
37                             0.0929255051309754 -50.3720431576095 0.900218852402309 -154.663219529786 0.900218852402308 -154.663219529786 0.0943512395464038 -47.6766086247549 
! Gamma         58.3215359972361 1806.05386270601 55.513711514302  1790.18443504284 
! Port Impedance         50               0                50               0                
38                             0.0787104814383334 -51.8564392523164 0.899197628650044 -158.884646604361 0.899197628650045 -158.884646604361 0.0804119652550023 -48.639143674401 
! Gamma         59.7044826900107 1854.6737452329  56.8413108108283 1838.4140878759  
! Port Impedance         50               0                50               0                
39                             0.0643699272145129 -52.1446828448306 0.898030257567312 -163.115415169737 0.898030257567312 -163.115415169737 0.0664558148818176 -48.2360218040471 
! Gamma         61.0828211053513 1903.29550987521 58.1649588750516 1886.64636840566 
! Port Impedance         50               0                50               0                
40                             0.0502010195756508 -50.2185397255987 0.896696919849112 -167.354013633934 0.896696919849112 -167.354013633934 0.052853658264496 -45.4198632991075 
! Gamma         62.4568004078197 1951.91962660085 59.4848803737823 1934.88170133082 
! Port Impedance         50               0                50               0                
41                             0.0368249654798945 -43.6952044763264 0.895181855513101 -171.598755015111 0.895181855513102 -171.598755015111 0.0403510640422792 -38.0209457744151 
! Gamma         63.8266643304322 2000.54653252959 60.8012943846981 1983.12048282841 
! Port Impedance         50               0                50               0                
42                             0.0259117635161345 -26.8364335158345 0.893473743673087 -175.847816723711 0.893473743673087 -175.847816723711 0.0306686636794606 -21.987870349613 
! Gamma         65.1926498884812 2049.1766351188  62.1144133568419 2031.36308339265 
! Port Impedance         50               0                50               0                
43                             0.0217962520882156 6.16559108254263 0.891565963734405 179.90071595581  0.891565963734406 179.90071595581  0.0271934665991367 4.57024469080783 
! Gamma         66.5549864154153 2097.81031509689 63.424442363525  2079.6098504442  
! Port Impedance         50               0                50               0                
44                             0.0276499237308393 36.2923557813531 0.889456725883952 175.648803934882 0.889456725883953 175.648803934882 0.0319756172213532 29.5864333715102 
! Gamma         67.9138948844479 2146.44792919048 64.7315785837719 2127.86111074265 
! Port Impedance         50               0                50               0                
45                             0.0390627807488673 50.3352729656741 0.887149064553486 171.398407327333 0.887149064553486 171.398407327333 0.0421380889977835 43.6312736487572 
! Gamma         69.2695874549373 2195.08981258393 66.0360109840754 2176.11717255694 
! Port Impedance         50               0                50               0                
46                             0.0522929081177269 55.6174734913384 0.88465069492139 167.151438839086 0.88465069492139 167.151438839086 0.0545379711047578 49.9362327768706 
! Gamma         70.6222672111816 2243.73628119898 67.3379201583965 2224.37832766613 
! Port Impedance         50               0                50               0                
47                             0.0659981924877959 56.9939745309471 0.881973738959821 162.909718970529 0.88197373895982 162.909718970529 0.0677061142401874 52.2080817617358 
! Gamma         71.9721280535214 2292.38763373525 68.6374782863482 2272.64485316621 
! Port Impedance         50               0                50               0                
48                             0.0796612657515469 56.4478230757512 0.879134333513927 158.674934373249 0.879134333513927 158.674934373249 0.0810015582497176 52.3356893963268 
! Gamma         73.3193547075879 2341.04415355519 69.9348492061225 2320.91701309087 
! Port Impedance         50               0                50               0                
49                             0.0930258247118764 54.8461407564257 0.876152137945505 154.448600538589 0.876152137945506 154.448600538589 0.0940992329965087 51.236400180364  
! Gamma         74.6641228369094 2389.70611034909 71.2301885502312 2369.19505989364 
! Port Impedance         50               0                50               0                
50                             0.105934557719403 52.6142145834865 0.873049762618132 150.232029788362 0.873049762618133 150.232029788362 0.106804286503708 49.3855304256587 
! Gamma         76.0065992258484 2438.37376167467 72.5236439641315 2417.47923575846 
! Port Impedance         50               0                50               0                
51                             0.11827570004412 49.9821673197735 0.869852141719771 146.026305277955 0.869852141719771 146.026305277955 0.118983438717129 47.0484952319032 
! Gamma         77.3469420278082 2487.04735431524 73.8153553487109 2465.76977379842 
! Port Impedance         50               0                50               0                
52                             0.129962577948831 47.0846502534502 0.866585874555255 141.83226146266  0.866585874555255 141.83226146266  0.130536972377995 44.3836073124583 
! Gamma         78.6853010514768 2535.72712551464 75.1054551502991 2514.06689912146 
! Port Impedance         50               0                50               0                
53                             0.140924734433567 44.005500115205  0.863278558586283 137.650471205756 0.863278558586283 137.650471205756 0.141386098006293 41.4906376061628 
! Gamma         80.0218180811565 2584.41330408089 76.3940686681034 2562.37082977794 
! Port Impedance         50               0                50               0                
54                             0.151103630393469 40.7995829629293 0.859958135390651 133.481239461362 0.859958135390651 133.481239461362 0.151466696333092 38.4353820739229 
! Gamma         81.3566272170252 2633.10611138274 77.6813143850525 2610.68177760868 
! Port Impedance         50               0                50               0                
55                             0.160450321842422 37.5042909239469 0.856652267651491 129.324603255686 0.856652267651491 129.324603255686 0.160725922015889 35.2628871573797 
! Gamma         82.6898552307494 2681.80576221932 78.967304291781  2658.99994903053 
! Port Impedance         50               0                50               0                
56                             0.168924049492764 34.1459763900995 0.853387761668915 125.180337512884 0.853387761668916 125.180337512884 0.169120175801818 32.0049682930832 
! Gamma         84.0216219279888 2730.51246562466 80.2521442290264 2707.32554567957 
! Port Impedance         50               0                50               0                
57                             0.176491273459761 30.7437474910359 0.850190046021897 121.047966156888 0.850190046021897 121.047966156888 0.176613768235245 28.6846932174757 
! Gamma         85.3520405081789 2779.22642557368 81.5359342209226 2755.65876504727 
! Port Impedance         50               0                50               0                
58                             0.183124938721323 27.3118135073828 0.847082713264218 116.926777834191 0.847082713264218 116.926777834191 0.183177953127593 25.3191716775802 
! Gamma         86.681217927962  2827.94784159557 82.8187688014081 2803.99980099561 
! Port Impedance         50               0                50               0                
59                             0.188803871881894 23.8609974930134 0.844087128134612 112.815845575968 0.844087128134611 112.815845575968 0.188790173749076 21.9213604358186 
! Gamma         88.009255249809  2876.67690935537 84.1007373409203 2852.34884424618 
! Port Impedance         50               0                50               0                
60                             0.193512264604061 20.3997529390063 0.841222102899438 108.714049712551 0.841222102899438 108.714049712551 0.193433444892017 18.5012754474987 
! Gamma         89.3362479937076 2925.41382113357 85.3819243535452 2900.70608279864 
! Port Impedance         50               0                50               0                
61                             0.197239225877854 16.9348766113043 0.838503638223826 104.62010338861  0.838503638223826 104.62010338861  0.197095834222637 15.0668368213451 
! Gamma         90.6622864659346 2974.15876627767 86.6624098032358 2949.07170231205 
! Port Impedance         50               0                50               0                
62                             0.199978398370477 13.4720317661596 0.835944726410877 100.532580069765 0.835944726410878 100.532580069765 0.19977002681269 11.6244814702313 
! Gamma         91.9874560827363 3022.91193159973 87.9422693909526 2997.44588643101 
! Port Impedance         50               0                50               0                
63                             0.201727640031068 10.0161525727994 0.833555212950209 96.4499424967081 0.833555212950209 96.4499424967081 0.201452966856776 8.17962721952024 
! Gamma         93.3118376821155 3071.67350170797 89.2215748324509 3045.82881708743 
! Port Impedance         50               0                50               0                
64                             0.202488774421518 6.57177585973038 0.831341711989435 92.3705725973453 0.831341711989435 92.3705725973453 0.202145575285602 4.73704259803512 
! Gamma         94.6355078139241 3120.44365933589 90.5003941212604 3094.2206747547  
! Port Impedance         50               0                50               0                
65                             0.202267413584248 3.1433321879416  0.829307571498646 88.2928019339429 0.829307571498646 88.2928019339429 0.201852543698058 1.30115933473638 
! Gamma         95.9585390287486 3169.22258560049 91.7787917792382 3142.62163868264 
! Port Impedance         50               0                50               0                
66                             0.201072856685321 -0.264579465131594 0.827452884425329 84.2149423035748 0.827452884425329 84.2149423035748 0.200582205202569 -2.12364525591274 
! Gamma         97.2810001375317 3218.01046024692 93.0568290957418 3191.03188709695 
! Port Impedance         50               0                50               0                
67                             0.198918066838792 -3.64691263890488 0.825774542895665 80.1353161523927 0.825774542895665 80.1353161523927 0.198346482221097 -5.53277384792424 
! Gamma         98.6029564693457 3266.80746186868 94.3345643494146 3239.45159738346 
! Port Impedance         50               0                50               0                
68                             0.195819727776139 -6.99786947789573 0.824266333405219 76.0522864852557 0.82426633340522 76.0522864852557 0.195160910528619 -8.92112202105825 
! Gamma         99.9244701094458 3315.61376808798 95.6120530209129 3287.88094624357 
! Port Impedance         50               0                50               0                
69                             0.191798381840153 -10.3105488574341 0.82291907182227 71.9642859585559 0.822919071822269 71.9642859585559 0.191044738239026 -12.2827563621869 
! Gamma         101.245600124517 3364.42955572268 96.8893479921694 3336.32010983331 
! Port Impedance         50               0                50               0                
70                             0.186878651598686 -13.5765173836451 0.821720777790886 67.8698448386176 0.821720777790886 67.8698448386176 0.186021098498098 -15.6105306793339 
! Gamma         102.566402775224 3413.25500094267 98.1664997326634 3384.76926388651 
! Port Impedance         50               0                50               0                
71                             0.181089549786275 -16.7852635130581 0.820656888683165 63.7676174886139 0.820656888683167 63.767617488614  0.180117255775319 -18.8956039110185 
! Gamma         103.886931715614 3462.09027938473 99.4435564744455 3433.2285838222  
! Port Impedance         50               0                50               0                
72                             0.174464887491049 -19.9234776556141 0.819710513495964 59.6564070209394 0.819710513495966 59.6564070209395 0.173364928799826 -22.1268073663914 
! Gamma         105.207238180272 3510.93556627498 100.72056437959  3481.69824484215 
! Port Impedance         50               0                50               0                
73                             0.167043800141565 -22.9740730426173 0.818862726981276 55.5351877156734 0.818862726981276 55.5351877156734 0.165800699592739 -25.2897823591904 
! Gamma         106.527371159114 3559.79103652948 101.997567688812 3530.17842201338 
! Port Impedance         50               0                50               0                
74                             0.158871428158411 -25.9148164537406 0.818092903762587 51.4031247816148 0.818092903762587 51.4031247816148 0.157466530267076 -28.3657648019876 
! Gamma         107.847377563254 3608.65686483913 103.274608868132 3578.66929034134 
! Port Impedance         50               0                50               0                
75                             0.149999819581978 -28.7163625260586 0.817379091232663 47.2595910052502 0.817379091232663 47.2595910052502 0.148410431628049 -31.329817459779 
! Gamma         109.167302376292 3657.53322574537 104.551728744676 3627.17102483205 
! Port Impedance         50               0                50               0                
76                             0.140489175955371 -31.3393587282087 0.816698418636245 43.1041798271248 0.816698418636245 43.1041798271248 0.138687368711088 -34.1481778200852 
! Gamma         110.487188799581 3706.42029371526 105.828966627784 3675.68380055895 
! Port Impedance         50               0                50               0                
77                             0.1304096597599  -33.7300712546498 0.816027537988475 38.936714390826  0.816027537988475 38.936714390826  0.128360565041368 -36.7741503662101 
! Gamma         111.80707838435  3755.31824319629 107.1063604285   3724.20779270274 
! Port Impedance         50               0                50               0                
78                             0.119844160253899 -35.8136050280405 0.815343090447388 34.7572521440554 0.815343090447388 34.7572521440554 0.117503514769465 -39.1415266449579 
! Gamma         113.127011157265 3804.22724867172 108.383946767913 3772.74317660119 
! Port Impedance         50               0                50               0                
79                             0.108892752259721 -37.4831305227574 0.814622189587487 30.5660846320302 0.814622189587487 30.5660846320302 0.106203306504   -41.1536588339198 
! Gamma         114.447025737007 3853.14748470582 109.661761078126 3821.29012778698 
! Port Impedance         50               0                50               0                
80                             0.097680238490581 -38.5823913320843 0.813842910872282 26.3637322194123 0.813842910872282 26.3637322194123 0.0945664800003555 -42.664608182779 
! Gamma         115.767159441442 3902.07912598782 110.939837694805 3869.84882202831 
! Port Impedance         50               0                50               0                
81                             0.0863694637625997 -38.8769508353864 0.812984774715556 22.1509335982789 0.812984774715556 22.1509335982789 0.0827299967401204 -43.4453344433197 
! Gamma         117.087448388761 3951.02234736719 112.218209947357 3918.41943535319 
! Port Impedance         50               0                50               0                
82                             0.0751856330160218 -38.0075479425309 0.812029209038344 17.9286300952644 0.812029209038345 17.9286300952644 0.0708830467269821 -43.1210044599349 
! Gamma         118.40792759067  3999.97732388667 113.4969102373   3967.00214408342 
! Port Impedance         50               0                50               0                
83                             0.0644613982224302 -35.4207965038508 0.810959976391133 13.6979449628224 0.810959976391133 13.6979449628224 0.0593128623925604 -41.0537251807379 
! Gamma         119.728631041112 4048.9442308125  114.775970117348 4015.59712485689 
! Port Impedance         50               0                50               0                