! Touchstone file exported from HFSS 2024.2.0
!        File:           C:/Users/vaintrug/Documents/Ansoft_Workspace/Comparaison_Calculs_HFSS/1_VarPort.aedt
!        Generated:      03:22:19 PM Jan 21, 2025
!        Design:         1_NoDeembed_FacePortFree
!        Project:        1_VarPort
!        Setup:          Setup1
!        Solution:       Sweep
!
! Variables:
!        $Lenght = 2000um
!        $PortSize = 290um
!        Gap = 30um
!        Th = 2um
!        X_centralStrip = 20um
!        X_masse = 200um
!        Y_Sub = 2mm
!        Z_Box = 400um
!        Z_Sub = 200um
!
# GHz S MA R 50.000000
! Terminal data exported
! Port[1] = 1
! Port[2] = 2
1                              0.0273194701277413 60.8104418194991 0.985372903160749 -5.89100703565589 0.985372903160748 -5.89100703565589 0.0273144334914916 60.8146409341205 
! Gamma         6.16865812582842 50.2757311118952 6.00329565146553 50.0760004008879 
! Port Impedance         50               0                50               0                
2                              0.0485151857801556 66.5328481566597 0.981861969909794 -11.6451112530256 0.981861969909793 -11.6451112530256 0.0484934790065879 66.5658262644933 
! Gamma         8.09490409778793 98.9753158091816 7.86121023106356 98.7223280521757 
! Port Impedance         50               0                50               0                
3                              0.0699798441089255 65.5622366063855 0.97831276884395 -17.401364450151 0.978312768843947 -17.401364450151 0.0699436220617452 65.6271747772213 
! Gamma         9.59250059965234 147.674396352621 9.33430358003225 147.359516591829 
! Port Impedance         50               0                50               0                
4                              0.0909363866385216 62.3628011682615 0.974360584404934 -23.1490508863528 0.974360584404934 -23.1490508863528 0.090888421362031 62.4585967080488 
! Gamma         10.970759098635  196.44601500261  10.6976181799703 196.059747841107 
! Port Impedance         50               0                50               0                
5                              0.110945112284124 58.1978455517937 0.969988062793387 -28.8789849187918 0.969988062793389 -28.8789849187917 0.110887555473479 58.3242031693846 
! Gamma         12.3270965861568 245.257545319092 12.0408507351373 244.795280588779 
! Port Impedance         50               0                50               0                
6                              0.129710661585382 53.5507397333991 0.965258656476551 -34.5849401187253 0.965258656476552 -34.5849401187252 0.129645318567417 53.7081482432082 
! Gamma         13.692541684416  294.08341842417  13.3929576922488 293.543138385724 
! Port Impedance         50               0                50               0                
7                              0.147011333900412 48.6440657299811 0.96026416818413 -40.2627728301917 0.960264168184131 -40.2627728301917 0.146939864213035 48.8335997246365 
! Gamma         15.0772748639353 342.907939315113 14.7635082537408 342.288989829663 
! Port Impedance         50               0                50               0                
8                              0.162674666501021 43.5940178692864 0.955107469963043 -45.9100456794156 0.955107469963043 -45.9100456794156 0.16259871856423 43.8172404462127 
! Gamma         16.4838727566513 391.721402100295 16.1549392250503 391.023899944168 
! Port Impedance         50               0                50               0                
9                              0.176566971805346 38.4667007705453 0.949893504625983 -51.5258367751269 0.949893504625984 -51.5258367751269 0.176488289449511 38.725634315418  
! Gamma         17.9117511243356 440.517651336973 17.566703665594  439.742174927509 
! Port Impedance         50               0                50               0                
10                             0.18858726261221 33.3019374128078 0.944723243281438 -57.1105893232008 0.944723243281438 -57.1105893232008 0.188507779550262 33.5990755813737 
! Gamma         19.3589050350935 489.292774319565 18.9969054407446 488.440186907432 
! Port Impedance         50               0                50               0                
11                             0.198662635224776 28.1245720730501 0.939689282783752 -62.665955246648 0.939689282783752 -62.665955246648 0.198584564258324 28.4629212871643 
! Gamma         20.8226943012985 538.044379334979 20.443040939711  537.115719323934 
! Port Impedance         50               0                50               0                
12                             0.206744246365127 22.9503832943374 0.934872666966638 -68.1946228535562 0.934872666966638 -68.1946228535562 0.206670167097117 23.3335303137456 
! Gamma         22.3002436867922 586.771167104381 21.9023788100491 585.767575243359 
! Port Impedance         50               0                50               0                
13                             0.212803706016484 17.7894609389757 0.930340723923126 -73.7001312979354 0.930340723923126 -73.7001312979354 0.212736654344559 18.221668126554  
! Gamma         23.7886663601517 635.472652558061 23.3721729861779 634.395321483674 
! Port Impedance         50               0                50               0                
14                             0.216829926590717 12.6483068815408 0.926145753230958 -79.1866781696902 0.926145753230958 -79.1866781696902 0.21677348983821 13.1346403683399 
! Gamma         25.2851955482604 684.148968956879 24.8497887142269 682.999107029802 
! Port Impedance         50               0                50               0                
15                             0.218826515769774 7.53126290660609 0.922324406442851 -84.6589264972879 0.922324406442852 -84.6589264972879 0.218784938588523 8.07776269029123 
! Gamma         26.7872627899498 732.80072016554  26.332777783442  731.57952530095  
! Port Impedance         50               0                50               0                
16                             0.218809783647419 2.44158020118349 0.918897616949382 -90.1218161466197 0.91889761694938 -90.1218161466197 0.218788091791107 3.0554859053416  
! Gamma         28.292542249274  781.42886404232  27.8189213484853 780.13750487939  
! Port Impedance         50               0                50               0                
17                             0.216807399281589 -2.61768733117992 0.915870957388989 -95.5803830383373 0.915870957388989 -95.5803830383372 0.216811551300087 -1.92763465077772 
! Gamma         29.798972042874  830.034618055125 29.3062507870572 828.674220662879 
! Port Impedance         50               0                50               0                
18                             0.21285769403062 -7.64284149694145 0.913235331739513 -101.039588363483 0.913235331739511 -101.039588363483 0.212894775542365 -6.86599094919823 
! Gamma         31.3047596239543 878.619381997711 30.7930532738844 877.191020871641 
! Port Impedance         50               0                50               0                
19                             0.207009577346715 -12.6286413869408 0.910967940123331 -106.504159157013 0.910967940123331 -106.504159157013 0.207088059881943 -11.7518710193471 
! Gamma         32.8083760526295 927.184674709395 32.2778666707127 925.689367164414 
! Port Impedance         50               0                50               0                
20                             0.199323006253057 -17.5672233623529 0.909033483078061 -111.978441317276 0.90903348307806 -111.978441317276 0.1994531048196  -16.5741544350266 
! Gamma         34.3085427145363 975.732082704168 33.7594671497981 974.170785909189 
! Port Impedance         50               0                50               0                
21                             0.189869935718369 -22.4466603362518 0.907385594885794 -117.466266293742 0.907385594885794 -117.466266293742 0.19006411999028 -21.316533187346 
! Gamma         35.8042131598949 1024.26321901557 35.2368521151558 1022.63682908615 
! Port Impedance         50               0                50               0                
22                             0.178735677699641 -27.2488639706512 0.905968510194352 -122.970833132768 0.905968510194353 -122.970833132768 0.179009428413196 -25.9548890839298 
! Gamma         37.2945521290222 1072.77969087323 36.7092203868411 1071.08904348334 
! Port Impedance         50               0                50               0                
23                             0.166020624152522 -31.9462926240761 0.904718972986773 -128.494608212832 0.904718972986774 -128.494608212832 0.166393593836071 -30.4531619378815 
! Gamma         38.7789132783277 1121.28307487071 38.1759510976444 1119.52894706469 
! Port Impedance         50               0                50               0                
24                             0.15184237318394 -36.4964198427395 0.903568391303545 -134.039245665739 0.903568391303545 -134.039245665739 0.152340240637649 -34.756427250278 
! Gamma         40.2568167831855 1169.77489848411 39.6365824351171 1167.95801129152 
! Port Impedance         50               0                50               0                
25                             0.136338511492695 -40.8317838605757 0.902445225226175 -139.60553195276 0.902445225226175 -139.60553195276 0.136996085060193 -38.7785559416275 
! Gamma         41.7279275661784 1218.25662694461 41.0907909546683 1216.37764859569 
! Port Impedance         50               0                50               0                
26                             0.119670847471769 -44.840707047171 0.901277571097136 -145.193358244411 0.901277571097136 -145.193358244411 0.120537549370842 -42.3786775577444 
! Gamma         43.1920347628103 1266.72965439838 42.5383720401495 1264.78920385559 
! Port Impedance         50               0                50               0                
27                             0.102033354018228 -48.3265438837082 0.899995874490158 -150.801723949517 0.899995874490156 -150.801723949517 0.103183567389424 -45.3126660264943 
! Gamma         44.6490327112976 1315.19529866281 43.9792218050495 1313.19394938641 
! Port Impedance         50               0                50               0                
28                             0.0836705294195671 -50.9117921262565 0.898535672315316 -156.428773874447 0.898535672315316 -156.428773874447 0.0852246983197741 -47.1235597783262 
! Gamma         46.0989036985936 1363.65479872926 45.4133206465835 1361.59308247513 
! Port Impedance         50               0                50               0                
29                             0.06492878260815 -51.7793473124134 0.896840235898417 -162.07187005641 0.896840235898418 -162.07187005641 0.0671002707313762 -46.8664851939514 
! Gamma         47.5417025057427 1412.109314447   46.8407185026842 1409.98772504328 
! Port Impedance         50               0                50               0                
30                             0.0464337702536926 -48.8429790577615 0.894862967555548 -167.7276973879  0.894862967555548 -167.727697387901 0.0496380120659776 -42.3474081110523 
! Gamma         48.9775427410955 1460.5599278727  48.2615218145908 1458.37892488402 
! Port Impedance         50               0                50               0                
31                             0.0298808780254259 -35.6732922138983 0.892569398156135 -173.392399868322 0.892569398156136 -173.392399868322 0.0348995951243291 -28.1956736359783 
! Gamma         50.4065849154411 1509.00764581209 49.6758821265419 1506.76765805217 
! Port Impedance         50               0                50               0                
32                             0.0215504388277264 2.40326873912182 0.889938645733642 -179.061741986979 0.889938645733641 -179.061741986979 0.0283237922019164 2.41788514590919 
! Gamma         51.8290261029558 1557.45340322378 51.083986217995  1555.15483207574 
! Port Impedance         50               0                50               0                
33                             0.0295741340515886 40.7578638064426 0.886964225918101 175.268712364074 0.886964225918099 175.268712364074 0.0349278840371833 32.7761901966875 
! Gamma         53.2450911141382 1605.89806717445 52.4860476445532 1603.54128969994 
! Port Impedance         50               0                50               0                
34                             0.0457486052151567 54.1320138023188 0.883654151100492 169.60341261152  0.883654151100491 169.60341261152  0.0493974048096506 46.7007381363543 
! Gamma         54.6550249813096 1654.34244119448 53.8822995593826 1651.92781301829 
! Port Impedance         50               0                50               0                
35                             0.0636888721012888 57.1809062639113 0.880030311101326 163.946635814485 0.880030311101326 163.946635814485 0.066327064163099 51.1551125067483 
! Gamma         56.0590866604209 1702.78726970415 55.2729886705453 1700.31512768821 
! Port Impedance         50               0                50               0                
36                             0.081686479856573 56.4125941703883 0.876127185955301 158.302312401776 0.876127185955301 158.302312401776 0.0836979867837272 51.4290797113666 
! Gamma         57.4575437766806 1751.23324256785 56.6583702112329 1748.70390723372 
! Port Impedance         50               0                50               0                
37                             0.099127726864196 53.9363271911844 0.871989993066573 152.673872153722 0.871989993066574 152.673872153722 0.100709800631014 49.681150620619  
! Gamma         58.8506683003939 1799.68099950488 58.0387037866212 1797.09477728    
! Port Impedance         50               0                50               0                
38                             0.115686554516865 50.577240588352  0.86767240950011 147.06411749092  0.86767240950011 147.06411749092  0.116948693600484 46.843406138957  
! Gamma         60.2387330220751 1848.13113439129 59.4142499842327 1845.48831963313 
! Port Impedance         50               0                50               0                
39                             0.131143844764604 46.7167146561638 0.863234031214861 141.475128893243 0.863234031214859 141.475128893243 0.132151667868828 43.368198904017  
! Gamma         61.6220087084491 1896.58419937833 60.7852676520334 1893.8850761937  
! Port Impedance         50               0                50               0                
40                             0.145334914456975 42.5540237938215 0.858737733515109 135.908204831026 0.85873773351511 135.908204831026 0.146130219005788 39.4983279049168 
! Gamma         63.0007618635603 1945.04070875792 62.1520117258871 1942.28555265364 
! Port Impedance         50               0                50               0                
41                             0.158130552045917 38.203170249853  0.854247082944013 130.363836281527 0.854247082944013 130.363836281527 0.158741235869326 35.3749037538549 
! Gamma         64.3752529654086 1993.50114259045 63.5147315419533 1990.69022196698 
! Port Impedance         50               0                50               0                
42                             0.169428655938772 33.7340117201198 0.8498239245397  124.841713925187 0.849823924539699 124.841713925187 0.169873997994734 31.0852122558868 
! Gamma         65.745735144277  2041.96595010336 64.8736695494758 2039.09952757539 
! Port Impedance         50               0                50               0                
43                             0.179149685416569 29.1917273532377 0.845526235336913 119.340764650461 0.845526235336914 119.340764650461 0.17944333102411 26.6859936993129 
! Gamma         67.1124531976955 2090.43555278637 66.2290603602035 2087.51388638277 
! Port Impedance         50               0                50               0                
44                             0.187233635437645 24.6068852592626 0.84140630057463 113.859213072015 0.841406300574631 113.859213072015 0.18738536505262 22.215688311195  
! Gamma         68.4756429028527 2138.91034729532 67.5811300775778 2135.9336915073  
! Port Impedance         50               0                50               0                
45                             0.193637716845667 20.0010681947356 0.837509237807509 108.394663374009 0.83750923780751 108.394663374009 0.193654530061374 17.7013402274321 
! Gamma         69.8355305686224 2187.39070804899 68.9300958549641 2184.35931478835 
! Port Impedance         50               0                50               0                
46                             0.198334459184416 15.3902576625184 0.83387186901632 102.944196818059 0.833871869016319 102.944196818059 0.198221251538115 13.1627536281709 
! Gamma         71.1923327853825 2235.87698966644 70.2761656467602 2232.79110910103 
! Port Impedance         50               0                50               0                
47                             0.201310159107357 10.7870341969701 0.830521923383989 97.5044805919601 0.83052192338399 97.5044805919601 0.201070143255692 8.61517014604789 
! Gamma         72.5462563342895 2284.3695291152  71.6195381079295 2281.22941041961 
! Port Impedance         50               0                50               0                
48                             0.202563674169698 6.20214204043405 0.827477543798483 92.0718841759845 0.827477543798484 92.0718841759845 0.202198630458075 4.07113171884904 
! Gamma         73.8974982187355 2332.86864771955 72.9604026237316 2329.67453972529 
! Port Impedance         50               0                50               0                
49                             0.202105585022363 1.64572762078024 0.824747067445404 86.6425999446739 0.824747067445404 86.6425999446739 0.201615988905566 -0.458096705531666 
! Gamma         75.2462458093883 2381.37465292798 74.2989394272028 2378.1268047305  
! Port Impedance         50               0                50               0                
50                             0.19995774996297 -2.87155114201556 0.822329053541752 81.2127652139538 0.822329053541753 81.2127652139538 0.199342800608989 -4.96131086735097 
! Gamma         76.5926770526219 2429.88783995525 75.635319804443  2426.58650141165 
! Port Impedance         50               0                50               0                
51                             0.196153269149294 -7.33739380742107 0.820212537462133 75.7785832995538 0.820212537462134 75.7785832995538 0.195410827412135 -9.42618619357305 
! Gamma         77.9369607540679 2478.40849321972 76.9697063467796 2475.05391542373 
! Port Impedance         50               0                50               0                
52                             0.19073686976255 -11.736557327421 0.818377498281562 70.3364413420214 0.818377498281561 70.3364413420214 0.189863300071729 -13.8379748908056 
! Gamma         79.2792568932407 2526.93688766045 78.3022532564703 2523.5293233421  
! Port Impedance         50               0                50               0                
53                             0.183765724809202 -16.0492049566687 0.816795534210971 64.8830226776927 0.816795534210972 64.8830226776927 0.182755621144118 -18.1778963591403 
! Gamma         80.6197169842867 2575.47328992469 79.6331066766154 2572.01299380839 
! Port Impedance         50               0                50               0                
54                             0.175310735775793 -20.2486385652446 0.815430745864547 59.4154113934584 0.815430745864547 59.4154113934584 0.17415649336228 -22.4209575252536 
! Gamma         81.9584844447163 2624.0179594206  80.9624050460102 2620.50518854028 
! Port Impedance         50               0                50               0                
55                             0.165458358383952 -24.2979851947702 0.814240829342266 53.9311864589386 0.814240829342265 53.9311864589386 0.164149525448912 -26.5327786474428 
! Gamma         83.2956949876276 2672.57114926458 82.2902794652814 2669.00616324958 
! Port Impedance         50               0                50               0                
56                             0.154313161759569 -28.1450982849576 0.813178378662396 48.4285025553724 0.813178378662397 48.4285025553724 0.152835462251721 -30.464685628427 
! Gamma         84.6314770136886 2721.1331071349  83.6168540710187 2717.51616845102 
! Port Impedance         50               0                50               0                
57                             0.142001548688106 -31.7143355941076 0.812192389595637 42.9061544826716 0.812192389595638 42.9061544826716 0.140335394928475 -34.145706265837 
! Gamma         85.9659520070702 2769.70407603349 84.9422464092858 2766.03545020459 
! Port Impedance         50               0                50               0                
58                             0.128677571700724 -34.8926873077614 0.811229944488369 37.3636219511039 0.811229944488369 37.3636219511039 0.126795765635531 -37.4688250445527 
! Gamma         87.2992349246597 2818.28429496627 86.2665678072517 2814.56425077106 
! Port Impedance         50               0                50               0                
59                             0.114532894292974 -37.5052923093636 0.810238041054487 31.8010917158724 0.810238041054487 31.8010917158724 0.112397023103226 -40.2660915682907 
! Gamma         88.6314345832778 2866.87399956098 87.5899237387443 2863.10280919641 
! Port Impedance         50               0                50               0                
60                             0.099815505937153 -39.2702948378625 0.809165509053508 26.2194544987967 0.809165509053509 26.2194544987968 0.0973702867345785 -42.2609780785457 
! Gamma         89.9626540306027 2915.47342259709 88.9124141770674 2911.65136184726 
! Port Impedance         50               0                50               0                
61                             0.0848679486104205 -39.7126803175277 0.80796493973708 20.6202749839459 0.80796493973708 20.6202749839459 0.0820327960722803 -42.9721226713925 
! Gamma         91.2929909087933 2964.08279452014 90.2341339435244 2960.21014287665 
! Port Impedance         50               0                50               0                
62                             0.070210842940683 -38.0001665758396 0.806594536970333 15.0057343825511 0.806594536970333 15.0057343825511 0.0668703908790577 -41.5118372151342 
! Gamma         92.6225378047717 3012.70234385334 91.5551730369299 3008.77938465311 
! Port Impedance         50               0                50               0                
63                             0.0567302480902833 -32.6748920123031 0.805019789196828 9.37854657198178 0.805019789196827 9.37854657198179 0.0527421735157479 -36.1879446202176 
! Gamma         93.9513825825234 3061.33229760639 92.8756169553417 3057.35931813225 
! Port Impedance         50               0                50               0                
64                             0.0460475958204661 -21.5769407684822 0.803214860644055 3.74185049619315 0.803214860644055 3.74185049619315 0.0413621630326093 -24.1029095619165 
! Gamma         95.2796087059612 3109.97288162846 94.1955469999174 3105.95017321535 
! Port Impedance         50               0                50               0                
65                             0.0407706135205376 -3.79032799719437 0.801163610030108 -1.90091680042743 0.801163610030108 -1.90091680042747 0.0358466615801014 -3.39629052676146 
! Gamma         96.6072955423192 3158.62432091697 95.5150405662876 3154.55217903949 
! Port Impedance         50               0                50               0                
66                             0.042944492474121 15.5659531885453 0.798860165605685 -7.54616064982959 0.798860165605685 -7.54616064982966 0.0387815253986221 18.9497188302757 
! Gamma         97.934518655294  3207.28683990224 96.8341714227205 3203.16556426367 
! Port Impedance         50               0                50               0                
67                             0.0513875468962762 29.3225215074095 0.796309014955411 -13.1902757945018 0.796309014955412 -13.1902757945018 0.0483907469112001 33.4897852680823 
! Gamma         99.2613500754647 3255.96066271038 98.1530099721685 3251.79055731535 
! Port Impedance         50               0                50               0                
68                             0.0632572353401588 36.5875985985205 0.793524603238838 -18.8297924827867 0.793524603238838 -18.8297924827867 0.0612146037733292 40.3983368311938 
! Gamma         100.587858564543 3304.64601339087 99.4716235004454 3300.42738662224 
! Port Impedance         50               0                50               0                
69                             0.0765166460915422 39.4992055115975 0.790530470037365 -24.4615141952137 0.790530470037365 -24.4615141952137 0.0751547858292533 42.7741624717317 
! Gamma         101.914109859407 3353.34311612827 100.790076412885 3349.07628081269 
! Port Impedance         50               0                50               0                
70                             0.0900603037001332 39.8135613043342 0.787357988016478 -30.0826402674949 0.787357988016478 -30.0826402674949 0.0891868826007546 42.6293306676826 
! Gamma         103.240166905594 3402.05219542341 102.108430456364 3397.73746890396 
! Port Impedance         50               0                50               0                
71                             0.103278314715205 38.5636608815045 0.784044792150625 -35.6908678796817 0.784044792150624 -35.6908678796817 0.102769367923904 41.0259777060974 
! Gamma         104.56609007273  3450.7734762832  103.426744926955 3446.41118047153 
! Port Impedance         50               0                50               0                
72                             0.115799927285728 36.3349197705544 0.780633003622173 -41.2844694518809 0.780633003622173 -41.284469451881 0.115574933100285 38.532688309575  
! Gamma         105.891937363941 3499.50718437169 104.745076868646 3495.09764581412 
! Port Impedance         50               0                50               0                
73                             0.127377688847822 33.4697214172638 0.777167356771937 -46.8623432216062 0.777167356771936 -46.8623432216062 0.127382936031584 35.4715088129869 
! Gamma         107.21776460694  3548.25354615472 106.063481259072 3543.79709609028 
! Port Impedance         50               0                50               0                
74                             0.137835246008166 30.1777397548324 0.773693331495072 -52.4240364727691 0.773693331495073 -52.4240364727691 0.138034010461472 32.0360142721557 
! Gamma         108.543625635514 3597.01278903957 107.382011181773 3592.50976345986 
! Port Impedance         50               0                50               0                
75                             0.147042317705055 26.5934120661251 0.770255379457419 -57.9697423953286 0.770255379457419 -57.9697423953286 0.147409094199526 28.3490204485358 
! Gamma         109.86957246111  3645.78514150499 108.700717992275 3641.23588120762 
! Port Impedance         50               0                50               0                
76                             0.154901671588476 22.8066933427106 0.766895313465352 -63.5002727390179 0.766895313465352 -63.5002727390179 0.155418713475144 24.4923174206741 
! Gamma         111.19565543277  3694.57083320774 110.019651470765 3689.97568385972 
! Port Impedance         50               0                50               0                
77                             0.161341713797516 18.8802428942486 0.763650908434799 -69.0170092586166 0.763650908434799 -69.0170092586166 0.161996905908312 20.522895161381  
! Gamma         112.521923386311 3743.37009511584 111.338859967747 3738.72940730393 
! Port Impedance         50               0                50               0                
78                             0.16631189035549 14.8595036726197 0.760554742440663 -74.5218374131556 0.760554742440662 -74.5218374131556 0.167097419212701 16.4823212254485 
! Gamma         113.848423787269 3792.18315958978 112.658390538284 3787.49728888717 
! Port Impedance         50               0                50               0                
79                             0.169779624228729 10.7789269045101 0.757633289372249 -80.0170659443246 0.75763328937225 -80.0170659443246 0.170691147415666 12.402490566052  
! Gamma         115.17520286135  3841.01026050801 113.978289071695 3836.27956752073 
! Port Impedance         50               0                50               0                
80                             0.171728191535739 6.66604714491609 0.754906261925935 -85.5053358814801 0.754906261925936 -85.5053358814801 0.172764338493252 8.30939129980226 
! Gamma         116.502305719966 3889.8516333468  115.298600409596 3885.07648378967 
! Port Impedance         50               0                50               0                
81                             0.172155254548903 2.54434754418805 0.752386195405174 -90.9895223015704 0.752386195405175 -90.9895223015704 0.173317365508883 4.22577722013816 
! Gamma         117.829776476257 3938.70751529277 116.619368459708 3933.88828003626 
! Port Impedance         50               0                50               0                
82                             0.171071918348415 -1.56453111368916 0.750078258729081 -96.4726318871005 0.750078258729081 -96.4726318871006 0.172363973569555 0.173267595922633 
! Gamma         119.157658354384 3987.57814532554 117.940636301518 3982.71520046304 
! Port Impedance         50               0                50               0                
83                             0.168502251196033 -5.63887646852225 0.747980278313322 -101.957699049201 0.747980278313322 -101.957699049201 0.169930973619609 -3.82578529410321 
! Gamma         120.485993794208 4036.46376431356 119.262446285821 4031.55749122763 
! Port Impedance         50               0                50               0                