! Touchstone file exported from HFSS 2024.2.0
!        File:           C:/Users/vaintrug/Documents/Ansoft_Workspace/Comparaison_Calculs_HFSS/1_VarPort.aedt
!        Generated:      03:22:16 PM Jan 21, 2025
!        Design:         1_NoDeembed_FacePortFree
!        Project:        1_VarPort
!        Setup:          Setup1
!        Solution:       Sweep
!
! Variables:
!        $Lenght = 1500um
!        $PortSize = 210um
!        Gap = 30um
!        Th = 2um
!        X_centralStrip = 20um
!        X_masse = 200um
!        Y_Sub = 1.5mm
!        Z_Box = 400um
!        Z_Sub = 200um
!
# GHz S MA R 50.000000
! Terminal data exported
! Port[1] = 1
! Port[2] = 2
1                              0.0207339036687204 62.4765108437251 0.989067605760693 -4.42495668241655 0.989067605760693 -4.42495668241655 0.0207318391934297 62.5042188094126 
! Gamma         6.04901123734956 50.4766438776098 5.8931249378848  50.127046522826  
! Port Impedance         50               0                50               0                
2                              0.0370116057424567 69.5311864026796 0.986563132107354 -8.74982656957142 0.986563132107354 -8.74982656957142 0.0370127324355395 69.5874672181053 
! Gamma         7.99121209454345 99.4840425858214 7.6132143294079  98.9938314135046 
! Port Impedance         50               0                50               0                
3                              0.0536687176197224 69.9153772763858 0.984091934021951 -13.0792260890345 0.98409193402195 -13.0792260890345 0.0536751825018387 69.9966322715401 
! Gamma         9.52908651373911 148.436997979169 9.03335378006284 147.899349139695 
! Port Impedance         50               0                50               0                
4                              0.0701986375449179 68.0795941749986 0.981363412247304 -17.406762537853 0.981363412247304 -17.4067625378531 0.0702118932011475 68.1860859485741 
! Gamma         10.9374306168852 197.444416401053 10.378874522344  196.855022422746 
! Port Impedance         50               0                50               0                
5                              0.0863384147370617 65.273244606695  0.978337487618452 -21.7268203842436 0.978337487618451 -21.7268203842437 0.0863600809346898 65.4055437436234 
! Gamma         12.3158728847237 246.487119797431 11.7141925733316 245.834301016175 
! Port Impedance         50               0                50               0                
6                              0.101921366688947 61.9720849687009 0.975029454411233 -26.0355141842638 0.975029454411233 -26.0355141842638 0.101953135825755 62.1307629917393 
! Gamma         13.6986710280455 295.543292186949 13.0604569339345 294.819254284904 
! Port Impedance         50               0                50               0                
7                              0.116823542334541 58.3944384707323 0.971473681823298 -30.3299864772169 0.971473681823297 -30.3299864772169 0.116867105898839 58.5800908561123 
! Gamma         15.0979755740607 344.598284633397 14.4248122945846 343.798750833131 
! Port Impedance         50               0                50               0                
8                              0.130945551298626 54.6542102178853 0.967713330273375 -34.6081140899469 0.967713330273375 -34.6081140899469 0.131002565997567 54.8674896649448 
! Gamma         16.5175102441942 393.64262924456  15.8089703840547 392.765684204949 
! Port Impedance         50               0                50               0                
9                              0.144205485678113 50.8165451532477 0.963795952679591 -38.8683870868575 0.963795952679591 -38.8683870868574 0.144277558644954 51.0581849460009 
! Gamma         17.9573803076985 442.670148845121 17.2122432373857 441.715412787483 
! Port Impedance         50               0                50               0                
10                             0.156535612095761 46.921268796881  0.959770883575374 -43.1098472108572 0.959770883575374 -43.1098472108572 0.156624295439331 47.1921004074504 
! Gamma         19.4160125590348 491.676823850048 18.6328073058605 490.644924516937 
! Port Impedance         50               0                50               0                
11                             0.167880433377231 42.9939166996255 0.955687367258981 -47.3320441133507 0.955687367258982 -47.3320441133507 0.167987224123376 43.2948852970911 
! Gamma         20.8910464803482 540.660130657629 20.0683097749897 539.55236305702  
! Port Impedance         50               0                50               0                
12                             0.178195265899917 39.0514008431153 0.951593111399606 -51.5349944240542 0.951593111399606 -51.5349944240542 0.178321609670808 39.383580755774  
! Gamma         22.379791920281  589.618634619603 21.5161945717533 588.436733871524 
! Port Impedance         50               0                50               0                
13                             0.187445021256287 35.1051406950794 0.947533156162191 -55.7191389167753 0.947533156162191 -55.7191389167753 0.18759231896856 35.4697521501753 
! Gamma         23.8794852468201 638.551719894005 22.9738922797545 637.297703904848 
! Port Impedance         50               0                50               0                
14                             0.195603087491318 31.1629056300278 0.943549007464057 -59.8852969961869 0.943549007464057 -59.8852969961869 0.195772704762121 31.5613337162511 
! Gamma         25.3874404616938 687.45939640702  24.4389357141738 686.135453085906 
! Port Impedance         50               0                50               0                
15                             0.202650285730908 27.2299618740297 0.939677998536599 -64.0346192341884 0.939677998536599 -64.0346192341884 0.202843564881487 27.6637784604664 
! Gamma         26.9011397366182 736.342153113165 25.909030209316  734.950557722136 
! Port Impedance         50               0                50               0                
16                             0.208573908195859 23.3098244941525 0.935952847135414 -68.1685390739431 0.935952847135413 -68.1685390739431 0.208792182909004 23.780814049157  
! Gamma         28.4182858408041 785.200841686435 27.3820942666175 783.743895261065 
! Port Impedance         50               0                50               0                
17                             0.213366851980234 19.4047753991912 0.932401376590891 -72.288724773084 0.932401376590892 -72.288724773084 0.213611464773131 19.9149655865097 
! Gamma         29.9368291918185 834.036581995273 28.8562796849868 832.516565395727 
! Port Impedance         50               0                50               0                
18                             0.217026862484692 15.5162377145196 0.929046370366798 -76.3970324194858 0.929046370366798 -76.3970324194858 0.217299185322838 16.0679360163262 
! Gamma         31.4549774121554 882.850684545042 30.3299772617257 881.269824243139 
! Port Impedance         50               0                50               0                
19                             0.219555896214391 11.6450599211821 0.925905532621484 -80.4954606017445 0.925905532621484 -80.4954606017445 0.219857354742828 12.2408977204677 
! Gamma         32.9711927785587 931.644586801217 31.8018123412527 930.005029917294 
! Port Impedance         50               0                50               0                
20                             0.22095960823042 7.79174285270606 0.922991531008302 -84.5861070537562 0.922991531008303 -84.5861070537562 0.221291710327783 8.43472890027324 
! Gamma         34.4841813904257 980.419801344152 33.2706334365928 978.723597906369 
! Port Impedance         50               0                50               0                
21                             0.221246965031323 3.95663144917464 0.920312102382555 -88.6711274143753 0.920312102382555 -88.6711274143753 0.221611334665105 4.65021717595967 
! Gamma         35.9928769760839 1029.17787416439 34.7354963258304 1027.42696516947 
! Port Impedance         50               0                50               0                
22                             0.22042998010474 0.140086957189949 0.917870206610185 -92.7526961097647 0.917870206610185 -92.7526961097647 0.220828397841274 0.888246862472234 
! Gamma         37.496421450832  1077.92035169356 36.1956455437231 1076.11656177954 
! Port Impedance         50               0                50               0                
23                             0.218523566538666 -3.65734791217074 0.915664218045994 -96.8329692961917 0.915664218045994 -96.8329692961917 0.218958018574393 -2.85001645865717 
! Gamma         38.9941438631881 1126.64875537829 37.6504946132729 1124.79378912719 
! Port Impedance         50               0                50               0                
24                             0.215545499121798 -7.43477937418201 0.913688148162247 -100.914049765916 0.913688148162247 -100.914049765916 0.216018237401409 -6.56293112487016 
! Gamma         40.485538950148  1175.36456255357 39.0996061226048 1173.46000366948 
! Port Impedance         50               0                50               0                
25                             0.211516476540296 -11.1907764108234 0.911931896256654 -104.997953757848 0.911931896256654 -104.997953757848 0.212030093532024 -10.2481600828607 
! Gamma         41.9702461027338 1224.06919266208 40.5426723095121 1222.11650538374 
! Port Impedance         50               0                50               0                
26                             0.206460273458238 -14.9231534119946 0.910381527850647 -109.086579640382 0.910381527850647 -109.086579640382 0.207017796587605 -13.9024094297286 
! Gamma         43.4480293812163 1272.76399784943 41.9794967464798 1270.76453000318 
! Port Impedance         50               0                50               0                
27                             0.200403971472548 -18.6287021370372 0.909019582483569 -113.181678526983 0.90901958248357 -113.181678526983 0.201008984337356 -17.5211008786411 
! Gamma         44.9187589109114 1321.45025711776 43.4099773612365 1319.40524442989 
! Port Impedance         50               0                50               0                
28                             0.193378258122064 -22.3028450206989 0.907825413894122 -117.284826950212 0.907825413894122 -117.284826950212 0.194035058785029 -21.0979436468034 
! Gamma         46.3823939130868 1370.12917332536 44.834091017047  1368.03974459623 
! Port Impedance         50               0                50               0                
29                             0.185417784130854 -25.9391676288241 0.906775566188375 -121.397401831451 0.906775566188374 -121.397401831451 0.186131595670697 -24.6243537071203 
! Gamma         47.8389674312844 1418.80187238368 46.2518796997307 1416.66905522747 
! Port Impedance         50               0                50               0                
30                             0.176561572120347 -29.5287639010929 0.905844189404713 -125.520558069133 0.905844189404713 -125.520558069133 0.17733882831085 -28.088638887244 
! Gamma         49.288572786864  1467.46940416664 47.6634383054891 1465.29413108796 
! Port Impedance         50               0                50               0                
31                             0.166853476471292 -33.0592859343634 0.905003496965524 -129.655209147674 0.905003496965525 -129.655209147674 0.167702217890944 -31.4748178856988 
! Gamma         50.7313516830786 1516.13274467059 49.0689039643642 1513.91585928477 
! Port Impedance         50               0                50               0                
32                             0.156342706945013 -36.5135153786071 0.904224265863079 -133.802011248396 0.904224265863081 -133.802011248396 0.157273143535792 -34.7608524093644 
! Gamma         52.1674838803448 1564.79279909257 50.4684468033764 1562.53506235838 
! Port Impedance         50               0                50               0                
33                             0.145084454028482 -39.8671350423779 0.903476378138967 -137.961351377576 0.903476378138968 -137.961351377576 0.146109785743207 -37.9159096252035 
! Gamma         53.5971783333629 1613.45040548895 51.8622620422614 1611.15250180133 
! Port Impedance         50               0                50               0                
34                             0.133140704595137 -43.0851115246186 0.902729399367334 -142.133340049654 0.902729399367334 -142.133340049654 0.134278355363106 -40.8959646053628 
! Gamma         55.0206656157523 1662.10633886051 53.2505632742779 1659.76888195265 
! Port Impedance         50               0                50               0                
35                             0.120581441083613 -46.1155542648793 0.90195318662149 -146.317809026563 0.901953186621491 -146.317809026563 0.121854979395775 -43.6364420054018 
! Gamma         56.4381915448835 1710.76131538108 54.6335768159924 1708.38485400374 
! Port Impedance         50               0                50               0                
36                             0.107486645706479 -48.8787378135728 0.901118515017256 -150.514314560308 0.901118515017256 -150.514314560308 0.108928894235825 -46.0393209176416 
! Gamma         57.8500118442906 1759.41599676209 56.0115370145534 1757.00102000664 
! Port Impedance         50               0                50               0                
37                             0.0939500672652357 -51.2462428997124 0.900197708637435 -154.722146459479 0.900197708637435 -154.722146459479 0.0956083689912898 -47.9493082928536 
! Gamma         59.2563877245118 1808.0709945069  57.3846823602766 1805.61793685837 
! Port Impedance         50               0                50               0                
38                             0.080087085355019 -52.9983045957511 0.899165258761506 -158.940343156163 0.899165258761506 -158.940343156163 0.0820326765333791 -49.1070752396443 
! Gamma         60.6575822588036 1856.72687408652 58.7532523228142 1854.23612011968 
! Port Impedance         50               0                50               0                
39                             0.0660529568879293 -53.7284813070252 0.897998410176363 -163.167712746389 0.897998410176363 -163.167712746389 0.0683984977974672 -49.0511935171589 
! Gamma         62.0538574496921 1905.3841589485  60.1174848051138 1902.85604768395 
! Port Impedance         50               0                50               0                
40                             0.0520906694899443 -52.6067802026155 0.896677695216144 -167.402859761394 0.896677695216143 -167.402859761394 0.0550239398277596 -46.8994467135387 
! Gamma         63.4454718865217 1954.04333429032 61.4776141158096 1951.47816321722 
! Port Impedance         50               0                50               0                
41                             0.0386768460451293 -47.7234240214795 0.895187395288758 -171.644217185603 0.895187395288758 -171.644217185603 0.0425188349142651 -40.8574321509494 
! Gamma         64.8326789030609 2002.70485063521 62.8338693875725 2000.10287941547 
! Port Impedance         50               0                50               0                
42                             0.0270390606161554 -34.2862717613991 0.893515911136568 -175.890083000369 0.89351591113657 -175.890083000369 0.0322455898630096 -27.4340430400487 
! Gamma         66.2157251581787 2051.36912713105 64.1864733745184 2048.73058098288 
! Port Impedance         50               0                50               0                
43                             0.0207209407525479 -4.22144823585745 0.891656025946718 179.861339680103 0.891656025946718 179.861339680103 0.0270875671936386 -3.36972103895523 
! Gamma         67.5948495801327 2100.03655465251 65.53564155638   2097.36162743866 
! Port Impedance         50               0                50               0                
44                             0.0242942047999701 30.1457575896972 0.889605049519877 175.611900003681 0.889605049519878 175.611900003681 0.0298217850865  23.0590925768761 
! Gamma         68.9702825971842 2148.7074986138  66.8815815102326 2145.99635565298 
! Port Impedance         50               0                50               0                
45                             0.0346783446572379 47.692001497206  0.887364836780512 171.36345555275  0.887364836780513 171.36345555275  0.0386723923900218 39.6310665814473 
! Gamma         70.3422456257051 2197.3823015811  68.2244924923835 2194.63508218628 
! Port Impedance         50               0                50               0                
46                             0.047383142735654 54.3859576244054 0.884941679573769 167.117828612049 0.884941679573769 167.117828612049 0.0503099769145802 47.4812189839346 
! Gamma         71.7109507518855 2246.06128564165 69.5645651980397 2243.27810542571 
! Port Impedance         50               0                50               0                
47                             0.0607209981277186 56.3578876454881 0.882346076505878 162.876763851313 0.882346076505878 162.876763851313 0.0629691243483392 50.5957422139436 
! Gamma         73.076600582171  2294.74475456839 70.9019816623064 2291.92570752138 
! Port Impedance         50               0                50               0                
48                             0.0740860163842093 56.0940984751073 0.879592391086418 158.64188867356  0.879592391086418 158.64188867356  0.0758825842030571 51.2073576935544 
! Gamma         74.4393882273397 2343.43299577998 72.2369152807972 2340.57815613337 
! Port Impedance         50               0                50               0                
49                             0.0871973861301081 54.638630237492  0.876698413187053 154.414677343662 0.876698413187053 154.414677343662 0.0886759937449935 50.4061897678694 
! Gamma         75.7994973902948 2392.12628212862 73.5695309116336 2389.23570603368 
! Port Impedance         50               0                50               0                
50                             0.0998903722481448 52.4863114643152 0.873684842492353 150.196419838093 0.873684842492353 150.196419838093 0.101133851466477 48.7503337166827 
! Gamma         77.1571025425461 2440.82487349238 74.8999850592581 2437.8986005179  
! Port Impedance         50               0                50               0                
51                             0.112050957279608 49.8979636558555 0.870574714962331 145.988196125797 0.870574714962331 145.988196125797 0.113113444325467 46.5470446801632 
! Gamma         78.5123691534152 2489.52901822368 76.2284261019815 2486.56707271016 
! Port Impedance         50               0                50               0                
52                             0.123591859352339 47.0231523753266 0.86739279425805 141.790856357439 0.867392794258049 141.790856357439 0.124510357939986 43.9772406614205 
! Gamma         79.8654539838941 2538.23895446237 77.5549945702073 2535.24134670689 
! Port Impedance         50               0                50               0                
53                             0.13444247500061 43.9535367559382 0.864164949662004 137.605007190951 0.864164949662004 137.605007190951 0.135243222611545 41.1536901359464 
! Gamma         81.2165054037059 2586.9549112913  78.8798234466973 2583.92163862163 
! Port Impedance         50               0                50               0                
54                             0.144544153977281 40.7483445093766 0.860917540427024 133.431004258422 0.860917540427025 133.431004258422 0.145246313938027 38.1500848192757 
! Gamma         82.5656637381378 2635.67710978667 80.203038488901  2632.60815751262 
! Port Impedance         50               0                50               0                
55                             0.153847724940167 37.4475210950339 0.857676823967909 129.268950571653 0.857676823967909 129.268950571653 0.154465631368887 35.0165053216373 
! Gamma         83.9130616299421 2684.40576395937 81.5247585627304 2681.30110621368 
! Port Impedance         50               0                50               0                
56                             0.162312042424693 34.0789705442862 0.854468402190159 125.11870050131  0.854468402190159 125.11870050131  0.162856623168584 31.7881178589115 
! Gamma         85.2588244095244 2733.14108159131 82.8450959851779 2730.00068207518 
! Port Impedance         50               0                50               0                
57                             0.169903024059087 30.6627676529935 0.851316716835459 120.9798688365   0.85131671683546 120.9798688365   0.170382735831786 28.4903088708347 
! Gamma         86.6030704698583 2781.88326498502 84.1641568648102 2778.70707762907 
! Port Impedance         50               0                50               0                
58                             0.176592936552474 27.2137284489688 0.84824460130567 116.851844346712 0.84824460130567 116.851844346712 0.177014399185044 25.1418506945389 
! Gamma         87.9459116362224 2830.63251162728 85.4820414390368 2827.4204811759  
! Port Impedance         50               0                50               0                
59                             0.182359818200584 23.7430482004537 0.845272893278893 112.733807229553 0.845272893278892 112.733807229553 0.182728256833994 21.7569318246213 
! Gamma         89.2874535332039 2879.38901478584 86.7988444084858 2876.14107730994 
! Port Impedance         50               0                50               0                
60                             0.187186986869281 20.2593889355751 0.842420109665546 108.624749806221 0.842420109665545 108.624749806221 0.187506547755455 18.3465083756337 
! Gamma         90.6277959433566 2928.15296404063 88.1146552611625 2924.86904738816 
! Port Impedance         50               0                50               0                
61                             0.191062611997882 16.7696317454909 0.83970218327496 104.523499855244 0.83970218327496 104.523499855244 0.191336592783862 14.9192374476236 
! Gamma         91.9670331550445 2976.92454575154 89.4295585858724 2973.60456993868 
! Port Impedance         50               0                50               0                
62                             0.193979343831913 13.2794203394372 0.837132258935312 100.428746000645 0.837132258935312 100.428746000646 0.194210364454698 11.4821470211554 
! Gamma         93.3052542960587 3025.70394347203 90.7436343736867 3022.34782104187 
! Port Impedance         50               0                50               0                
63                             0.195933999898582 9.79357328530341 0.83472054577887 96.3390646279018 0.83472054577887 96.3390646279018 0.196124131153951 8.04113756218666 
! Gamma         94.6425436598987 3074.49133832421 92.0569583127735 3071.09897463532 
! Port Impedance         50               0                50               0                
64                             0.196927311419557 6.31641449394585 0.832474221923978 92.2529478463039 0.832474221923978 92.252947846304  0.197078172536065 4.60137633503093 
! Gamma         95.9789810081379 3123.28690932703 93.3696020589418 3119.85820282306 
! Port Impedance         50               0                50               0                
65                             0.196963733102737 2.85205555242277 0.830397387722964 88.168832078976  0.830397387722963 88.168832078976  0.197076565880828 1.16762545503847 
! Gamma         97.3146418716452 3172.09083367774 94.6816335067072 3168.62567611676 
! Port Impedance         50               0                50               0                
66                             0.196051319169082 -0.595345495422727 0.828491064092794 84.0851268945941 0.828491064092795 84.0851268945942 0.196127043696092 -2.25546681065583 
! Gamma         98.6495978259782 3220.90328701744 95.9931170345101 3217.40156366884 
! Port Impedance         50               0                50               0                
67                             0.194201667674442 -4.02132882268883 0.826753232994439 80.0002437449191 0.826753232994439 80.0002437449191 0.194240922796881 -5.66308818201945 
! Gamma         99.9839167567674 3269.72444365242 97.3041137455109 3266.18603346356 
! Port Impedance         50               0                50               0                
68                             0.19142993420656 -7.42086215665893 0.825178917851086 75.9126242890268 0.825178917851086 75.9126242890268 0.19143310454504 -9.04997708826318 
! Gamma         101.317663112024 3318.5544767566  98.6146816899471 3314.9792525004  
! Port Impedance         50               0                50               0                
69                             0.18775491544496 -10.7880345117238 0.823760302433606 71.8207679963353 0.823760302433606 71.8207679963353 0.187722145559751 -12.4101084790638 
! Gamma         102.650898137412 3367.39355854013 99.9248760770759 3363.78138694575 
! Port Impedance         50               0                50               0                
70                             0.183199203100955 -14.1156895853308 0.822486887418282 67.7232587269354 0.822486887418282 67.7232587269353 0.183130398295206 -15.7363254232913 
! Gamma         103.983680098265 3416.24186041438 101.234749475413 3412.59260226612 
! Port Impedance         50               0                50               0                
71                             0.177789410012879 -17.3949658070989 0.821345684322529 63.6187899682202 0.821345684322529 63.6187899682202 0.177684222044493 -19.0198834750943 
! Gamma         105.316064491741 3465.09955311969 102.544351997624 3461.41306335    
! Port Impedance         50               0                50               0                
72                             0.171556473202235 -20.6146961250087 0.820321446806083 59.5061883925919 0.820321446806083 59.5061883925919 0.171414267678174 -22.2498614625659 
! Gamma         106.648104239083 3513.96680684652 103.853731476327 3510.24293461219 
! Port Impedance         50               0                50               0                
73                             0.164536044970563 -23.7605979550631 0.819396939277067 55.3844353747893 0.819396939277067 55.3844353747893 0.164355845191206 -25.4123702717714 
! Gamma         107.979849873813 3562.84379134549 105.162933629589 3559.08238008569 
! Port Impedance         50               0                50               0                
74                             0.156768994623207 -26.8141466048509 0.818553242354004 51.2526860823257 0.818553242354004 51.2526860823257 0.156549393757259 -28.4894547688089 
! Gamma         109.311349712436 3611.73067600855 106.472002212962 3607.93156350478 
! Port Impedance         50               0                50               0                
75                             0.148302064013545 -29.7509638535522 0.817770093970399 47.110285736966  0.817770093970399 47.110285736966  0.148041093157505 -31.4575230241927 
! Gamma         110.642650014724 3660.62762996015 107.780979164109 3656.79064837041 
! Port Impedance         50               0                50               0                
76                             0.139188756885893 -32.5384488405727 0.817026263784799 42.9567826294865 0.817026263784799 42.9567826294865 0.138883689849183 -34.2850328476041 
! Gamma         111.973795136243 3709.53482211984 109.089904737051 3705.6597980167  
! Port Impedance         50               0                50               0                
77                             0.129490608677486 -35.1321968178454 0.816299957086716 38.7919374846237 0.816299957086716 38.7919374846237 0.129137673666434 -36.9289831416988 
! Gamma         113.304827667374 3758.452421273   110.398817625149 3754.5391756663  
! Port Impedance         50               0                50               0                
78                             0.119279106810011 -37.4704279929339 0.815569242688424 34.6157287926453 0.815569242688425 34.6157287926453 0.118873058040347 -39.3294289086235 
! Gamma         114.635788565328 3807.38059611306 111.70775508142  3803.42894447241 
! Port Impedance         50               0                50               0                
79                             0.108638767693146 -39.4650593390223 0.814812497424469 30.4283537818956 0.814812497424468 30.4283537818956 0.10817224232407 -41.4006306679353 
! Gamma         115.966717275329 3856.31951529438 113.016753023365 3852.32926756226 
! Port Impedance         50               0                50               0                
80                             0.0976723449324785 -40.9869608623402 0.814008858017796 26.2302247793102 0.814008858017797 26.2302247793102 0.0971348877291399 -43.0162979369141 
! Gamma         117.297651844338 3905.26934747771 114.325846135563 3901.24030808149 
! Port Impedance         50               0                50               0                
81                             0.0865101062473497 -41.8409243128424 0.813138669367073 22.0219608152313 0.813138669367073 22.0219608152313 0.0858866855532116 -43.9841883988475 
! Gamma         118.628629027809 3954.23026135698 115.63506796423  3950.16222921209 
! Port Impedance         50               0                50               0                
82                             0.0753271535299262 -41.7223808650433 0.812183916940515 17.8043744551727 0.812183916940515 17.8043744551727 0.0745959510895125 -44.0012620346929 
! Gamma         119.959684385495 4003.20242570253 116.944451003698 3999.0951942155  
! Port Impedance         50               0                50               0                
83                             0.0643770626641361 -40.1433869980571 0.811128630100732 13.5784539959815 0.811128630100732 13.5784539959815 0.0635064992772064 -42.5743193613062 
! Gamma         121.290852375718 4052.18600937459 118.25402677785  4048.0393664438  
! Port Impedance         50               0                50               0                