! Touchstone file exported from HFSS 2024.2.0
!        File:           C:/Users/vaintrug/Documents/Ansoft_Workspace/Comparaison_Calculs_HFSS/1_VarPort.aedt
!        Generated:      03:22:18 PM Jan 21, 2025
!        Design:         1_NoDeembed_FacePortFree
!        Project:        1_VarPort
!        Setup:          Setup1
!        Solution:       Sweep
!
! Variables:
!        $Lenght = 2000um
!        $PortSize = 190um
!        Gap = 30um
!        Th = 2um
!        X_centralStrip = 20um
!        X_masse = 200um
!        Y_Sub = 2mm
!        Z_Box = 400um
!        Z_Sub = 200um
!
# GHz S MA R 50.000000
! Terminal data exported
! Port[1] = 1
! Port[2] = 2
1                              0.0276957157188321 61.268550180481  0.985430272587951 -5.89697679790351 0.985430272587951 -5.8969767979035 0.0276947386838817 61.2636327180702 
! Gamma         5.81841931794746 50.1303819914552 5.90603283327335 50.0821708045711 
! Port Impedance         50               0                50               0                
2                              0.0493913784812456 66.8301178475888 0.981915030523872 -11.6600023397938 0.981915030523872 -11.6600023397938 0.0493808795867624 66.8305177253537 
! Gamma         7.62196266701831 98.9635403789155 7.69247619873459 98.827195881603  
! Port Impedance         50               0                50               0                
3                              0.0713281932174181 65.7580868358872 0.978328655682061 -17.4245031769179 0.978328655682061 -17.4245031769179 0.0713074141441846 65.7677056142463 
! Gamma         9.08177945280779 147.78324130668  9.13368893964332 147.587102634982 
! Port Impedance         50               0                50               0                
4                              0.0927251170695586 62.5004707285146 0.974318958907918 -23.1795629258061 0.974318958907918 -23.1795629258061 0.0926946496361608 62.5191048631963 
! Gamma         10.4430143181194 196.655042360197 10.4834783280937 196.405253236932 
! Port Impedance         50               0                50               0                
5                              0.113140794360804 58.3010757404416 0.969874569861379 -28.9158812455072 0.969874569861379 -28.9158812455072 0.113101113984067 58.3284171378048 
! Gamma         11.785876879994  245.555724767164 11.8188761508039 245.253126311996 
! Port Impedance         50               0                50               0                
6                              0.132277232854779 53.6336655511089 0.965063724019043 -34.6271306832034 0.965063724019043 -34.6271306832034 0.132228660827757 53.6696376851912 
! Gamma         13.1367928222694 294.465575475663 13.1644434845616 294.109932315353 
! Port Impedance         50               0                50               0                
7                              0.149910137894414 48.7160239680656 0.959982792464529 -40.3091006560988 0.95998279246453 -40.3091006560988 0.149852904737752 48.7607567181085 
! Gamma         14.5047816665416 343.372044699869 14.5282714708798 342.96292995073  
! Port Impedance         50               0                50               0                
8                              0.165865011099391 43.661778888015  0.95473906753415 -45.9593327502647 0.95473906753415 -45.9593327502647 0.165799317549237 43.7155693550134 
! Gamma         15.8922973909338 392.267142924275 15.912324514666  391.804142169771 
! Port Impedance         50               0                50               0                
9                              0.180006835414439 38.5355700493821 0.949441640204028 -51.5769328861684 0.949441640204028 -51.5769328861684 0.179932904815411 38.598859138536  
! Gamma         17.2989661895436 441.14567970503  17.3159523837464 440.628435566768 
! Port Impedance         50               0                50               0                
10                             0.192233966286439 33.3763408765752 0.94419521565028 -57.1624186772673 0.944195215650279 -57.1624186772673 0.192152089598978 33.4497033865491 
! Gamma         18.72309665643   490.004290141162 18.73729820344   489.432505379714 
! Port Impedance         50               0                50               0                
11                             0.202473397023127 28.2083934681275 0.939095597762898 -62.7175578339195 0.939095597762899 -62.7175578339195 0.202383971758964 28.292538222774  
! Gamma         20.1623833312478 538.840882933622 20.1739525276899 538.214313425803 
! Port Impedance         50               0                50               0                
12                             0.210676588426359 23.0471793531475 0.934226436705815 -68.2451890027446 0.934226436705814 -68.2451890027446 0.210580152573979 23.1429574140386 
! Gamma         21.6142752226269 587.654302719793 21.6232963239576 586.972749070937 
! Port Impedance         50               0                50               0                
13                             0.216815716641547 17.9026181788268 0.929657028845263 -73.7490286942662 0.929657028845263 -73.7490286942662 0.216712978614781 18.0110385650068 
! Gamma         23.0761861432843 636.444104383706 23.0826975382448 635.707404547049 
! Port Impedance         50               0                50               0                
14                             0.220880399371487 12.7811755428056 0.925440995010312 -79.233471197265 0.925440995010312 -79.233471197265 0.220772265184246 12.9034290735717 
! Gamma         24.5456207913627 685.210389434565 24.549629309548  684.418412709929 
! Port Impedance         50               0                50               0                
15                             0.222874999319211 7.68729068466407 0.921615671525503 -84.7033881024656 0.921615671525504 -84.7033881024656 0.222762598454987 7.82478343007296 
! Gamma         26.0202509457515 733.953679664779 26.0217415072473 733.106321936667 
! Port Impedance         50               0                50               0                
16                             0.222816582092904 2.62446316617834 0.918202062284758 -90.1639325605157 0.918202062284759 -90.1639325605157 0.222701293978607 2.77886226140691 
! Gamma         27.4979595272476 782.674815698562 27.496901943432  781.771995599269 
! Port Impedance         50               0                50               0                
17                             0.220733566656001 -2.40381965071247 0.915205224462409 -95.6203517326338 0.915205224462408 -95.6203517326338 0.220617050245842 -2.23052366288231 
! Gamma         28.976862865816  831.3748736163   28.9732167624047 830.416529399115 
! Port Impedance         50               0                50               0                
18                             0.216665067336633 -7.393186478251  0.912614991919065 -101.077809561166 0.912614991919065 -101.077809561166 0.216549297294044 -7.19859426844488 
! Gamma         30.4553177243336 880.055096059667 30.4490362310636 879.041182915169 
! Port Impedance         50               0                50               0                
19                             0.210660894045954 -12.3374008765465 0.91040697386078 -106.54122115957 0.910406973860779 -106.54122115957 0.210548208542695 -12.1185860333219 
! Gamma         31.931917682959  928.716835369542 31.9229502193027 927.64732319829  
! Port Impedance         50               0                50               0                
20                             0.202782154026198 -17.2271558093262 0.908543797221117 -112.015099868284 0.908543797221118 -112.015099868284 0.202675321810217 -16.9804980418878 
! Gamma         33.4054822507383 977.361507180655 33.3937766613582 976.236378588513 
! Port Impedance         50               0                50               0                
21                             0.193102387604567 -22.0484392528051 0.906976585723499 -117.503418199209 0.906976585723499 -117.503418199209 0.193004706496944 -21.7693841649705 
! Gamma         34.8750412369198 1025.99055301757 34.8605454479807 1024.80980153901 
! Port Impedance         50               0                50               0                
22                             0.181709177789892 -26.7801283238697 0.905646684232977 -123.009484457001 0.905646684232977 -123.009484457001 0.181624624876568 -26.4628325053629 
! Gamma         36.3398163258002 1074.60541084118 36.3224795859163 1073.36903933924 
! Port Impedance         50               0                50               0                
23                             0.168706216436342 -31.390188295663 0.90448764192841 -128.535837545468 0.904487641928411 -128.535837545468 0.168639685270044 -31.0269792256172 
! Gamma         37.7992013020942 1123.2074922192  37.7789751225391 1121.91551148007 
! Port Impedance         50               0                50               0                
24                             0.154215927482467 -35.8292616642044 0.903427461357819 -134.084163220142 0.903427461357818 -134.084163220142 0.154173616941964 -35.4097872805186 
! Gamma         39.2527419919625 1171.79816540149 39.2295808249971 1170.45059280633 
! Port Impedance         50               0                50               0                
25                             0.138383040281515 -40.019115992489 0.902391102745931 -139.655235608305 0.902391102745931 -139.655235608305 0.138373120207214 -39.5289527661892 
! Gamma         40.7001167091765 1220.37874306305 40.673978420043  1218.97560144075 
! Port Impedance         50               0                50               0                
26                             0.121380240791196 -43.8302625057437 0.90130320563403 -145.248888027369 0.901303205634031 -145.248888027369 0.121414052685813 -43.2485388459027 
! Gamma         42.141117705104  1268.95047413257 42.1119638771377 1267.49179068781 
! Port Impedance         50               0                50               0                
27                             0.103419010478568 -47.0347661243907 0.900090956055659 -150.864016829444 0.900090956055659 -150.864016829444 0.103513378418325 -46.3299341335359 
! Gamma         43.5756339703372 1317.51453875986 43.543430072378  1316.00034414865 
! Port Impedance         50               0                50               0                
28                             0.084774752793729 -49.1959573883625 0.898686991625758 -156.498621052806 0.898686991625758 -156.498621052806 0.0849567992812455 -48.3181174417475 
! Gamma         45.00363557512   1366.0720458584  44.9683510077496 1364.50237335697 
! Port Impedance         50               0                50               0                
29                             0.0658564042654742 -49.3757944561099 0.897032205085412 -162.149879113371 0.897032205085413 -162.149879113371 0.0661745338342793 -48.2441201856812 
! Gamma         46.4251596102075 1414.62403267272 46.3867676794619 1412.99891745405 
! Port Impedance         50               0                50               0                
30                             0.0474404123485385 -45.2386787805536 0.895078285220142 -167.81426162349 0.895078285220144 -167.81426162349 0.0479908029280365 -43.7410147246388 
! Gamma         47.8402977432445 1463.17146583464 47.798775557216  1461.49094432146 
! Port Impedance         50               0                50               0                
31                             0.0316305938769003 -30.2209559006987 0.892789828494256 -173.487676933074 0.892789828494257 -173.487676933074 0.032598504254543 -28.4766629989682 
! Gamma         49.2491853151986 1511.71524355325 49.2045136344752 1509.97935286882 
! Port Impedance         50               0                50               0                
32                             0.0250052210155005 5.96334066729009 0.890145868823562 -179.165643423906 0.890145868823562 -179.165643423906 0.0263805305790483 6.18499299388669 
! Gamma         50.6519919036491 1560.25619858382 50.604154950609  1558.46497608657 
! Port Impedance         50               0                50               0                
33                             0.0335689602408873 39.0199321721012 0.887140707228687 175.156519732398 0.887140707228686 175.156519732398 0.0347086724498773 37.7359943174029 
! Gamma         52.0489132144174 1608.79510175617 51.9978984605914 1606.94858465204 
! Port Impedance         50               0                50               0                
34                             0.0497087508067782 51.608104386259  0.883783974550406 169.483493316225 0.883783974550406 169.483493316225 0.0505410789234775 50.3836510957326 
! Gamma         53.4401641963252 1657.33266581077 53.3859621351642 1655.43089080271 
! Port Impedance         50               0                50               0                
35                             0.0677415871156328 54.8490318637046 0.880099922344098 163.819761110811 0.880099922344099 163.819761110811 0.0683839215417999 53.8680793634194 
! Gamma         54.8259732353131 1705.86954940442 54.768577145564  1703.91255243603 
! Port Impedance         50               0                50               0                
36                             0.0859180327968945 54.3313874098105 0.876126000752479 158.169425860822 0.87612600075248 158.169425860822 0.086438838596883 53.5432122059793 
! Gamma         56.2065773173781 1754.40636115593 56.1459830250841 1752.39417718149 
! Port Impedance         50               0                50               0                
37                             0.103567471134125 52.0583925019363 0.871910838355185 152.536047579271 0.871910838355185 152.536047579271 0.10400314775694 51.4118901143036 
! Gamma         57.5822180217822 1802.94366363026 57.5184236671143 1800.87632644169 
! Port Impedance         50               0                50               0                
38                             0.12033185247959 48.8554310795398 0.867511780045695 146.922511657699 0.867511780045695 146.922511657699 0.12070321890449 48.3155138560102 
! Gamma         58.9531382564853 1851.48197721354 58.8861440662799 1849.35951930564 
! Port Impedance         50               0                50               0                
39                             0.135974007219818 45.1153201007118 0.862992160277257 141.330931731568 0.862992160277258 141.330931731568 0.136293955563335 44.6585754507707 
! Gamma         60.3195796101602 1900.0217838101  60.2493876810974 1897.84423628051 
! Port Impedance         50               0                50               0                
40                             0.150318507280768 41.0470504930176 0.858418489639587 135.762589599713 0.858418489639587 135.762589599713 0.150595588444471 40.6575403146497 
! Gamma         61.6817802525014 1948.56353034095 61.6083943456218 1946.33092281949 
! Port Impedance         50               0                50               0                
41                             0.163229495910275 36.7716000041335 0.853857715302696 130.217911975663 0.853857715302695 130.217911975663 0.163469716712166 36.4381792171176 
! Gamma         63.0399732871883 1997.10763203129 62.9633986337701 1994.8199926296  
! Port Impedance         50               0                50               0                
42                             0.174600692468796 32.3636844621814 0.849374685460381 124.696481757645 0.849374685460381 124.696481757645 0.174808476036951 32.0783670464872 
! Gamma         64.3943854832914 2045.65447546778 64.3146286101815 2043.31183075811 
! Port Impedance         50               0                50               0                
43                             0.184349928431381 27.8718730429016 0.845029910772735 119.197079984049 0.845029910772734 119.197079984049 0.184528654129234 27.628822839151  
! Gamma         65.7452363473854 2094.20442141558 65.6623049079014 2091.80679641647 
! Port Impedance         50               0                50               0                
44                             0.192415559648474 23.329127172566  0.840877677938439 113.71775372723  0.840877677938439 113.71775372723  0.192567877544686 23.124017198517  
! Gamma         67.0927374444298 2142.75780742206 67.0066400692247 2140.30522561264 
! Port Impedance         50               0                50               0                
45                             0.198753775990974 18.7587470215251 0.836964536811246 108.255904845665 0.836964536811245 108.255904845665 0.198881793426102 18.5883405289413 
! Gamma         68.4370919548818 2191.31495020888 68.3478381118908 2188.80743354215 
! Port Impedance         50               0                50               0                
46                             0.203336452680938 14.1779745481705 0.83332815606692 102.808394628189 0.83332815606692 102.808394628189 0.203441844611888 14.0398432441239 
! Gamma         69.77849440621   2239.87614783701 69.6860942791977 2237.31371676705 
! Port Impedance         50               0                50               0                
47                             0.206149431804137 9.60034827421954 0.829996524739608 97.371659803885  0.829996524739608 97.371659803885  0.206233503668595 9.49267785797506 
! Gamma         71.1171305588646 2288.44168168013 71.0215949330224 2285.82435520542 
! Port Impedance         50               0                50               0                
48                             0.20719121667519 5.03738360700127 0.82698746794764 91.9418359734496 0.826987467947641 91.9418359734496 0.207254936408175 4.95883644597129 
! Gamma         72.4531774056057 2337.01181823619 72.3545175657694 2334.33961392473 
! Port Impedance         50               0                50               0                
49                             0.206472092928744 0.499906093082852 0.82430844367218 86.5148851434789 0.82430844367218 86.5148851434789 0.206516102055426 0.449522286076811 
! Gamma         73.7868032679195 2385.58681072665 73.6850309094639 2382.85974477638 
! Port Impedance         50               0                50               0                
50                             0.204013695265837 -4.00075126961545 0.821956591694246 81.0867245700258 0.821956591694246 81.0867245700258 0.204038305126365 -4.02362629188367 
! Gamma         75.1181679685032 2434.16690057926 75.0132951178017 2431.38498784983 
! Port Impedance         50               0                50               0                
51                             0.199849034371646 -8.45152218793238 0.819919013721848 75.6533545004119 0.819919013721848 75.6533545004119 0.199854211199003 -8.44729102904217 
! Gamma         76.4474230567902 2482.75231873179 76.3394619990547 2479.91557280648 
! Port Impedance         50               0                50               0                
52                             0.194022994777468 -12.8361888273516 0.818173273086495 70.2109825730764 0.818173273086495 70.2109825730764 0.194008335908186 -12.8050409334913 
! Gamma         77.774712081988  2531.34328682592 77.6636753002128 2528.45172005238 
! Port Impedance         50               0                50               0                
53                             0.186593318858859 -17.133564695271 0.81668811119919 64.7561426167808 0.816688111199189 64.7561426167808 0.186558021435227 -17.0755025133671 
! Gamma         79.1001708929601 2579.94001826518 78.9860710136713 2576.99364181372 
! Port Impedance         50               0                50               0                
54                             0.177632115850792 -21.3149717751806 0.815424384276032 59.2858053838703 0.815424384276032 59.2858053838703 0.177574938836389 -21.2298232550774 
! Gamma         80.4239279634286 2628.54271916842 80.306777706435  2625.54154307587 
! Port Impedance         50               0                50               0                
55                             0.167227996439157 -25.340507617094 0.814336226188845 53.7974784300865 0.814336226188846 53.7974784300865 0.167147216644888 -25.2279193706752 
! Gamma         81.7461047257112 2677.15158922457 81.6259168656479 2674.09562244605 
! Port Impedance         50               0                50               0                
56                             0.155489072451512 -29.1532180688636 0.813372440379472 48.2892919892708 0.813372440379472 48.2892919892708 0.155382435984902 -29.0126143319314 
! Gamma         83.0668159171158 2725.76682244259 82.9436032455055 2722.65607290257 
! Port Impedance         50               0                50               0                
57                             0.142547361023626 -32.6695451003029 0.812478115037328 42.7600673809127 0.812478115037328 42.7600673809127 0.142412034487012 -32.5000173614601 
! Gamma         84.3861699215854 2774.3886078494  84.2599452196602 2771.22308248046 
! Port Impedance         50               0                50               0                
58                             0.1285657860716  -35.7629039710591 0.811596441163207 37.2093643531606 0.811596441163207 37.2093643531606 0.128398321080769 -35.5629480319591 
! Gamma         85.7042691176209 2823.01713007153 85.5750451259117 2819.79683486806 
! Port Impedance         50               0                50               0                
59                             0.11375044351145 -38.2340604374585 0.810670693739831 31.6375039104262 0.810670693739831 31.6375039104262 0.113546796695684 -38.0009563126524 
! Gamma         87.0212102108371 2871.65256988893 86.8889996093704 2868.37750995027 
! Port Impedance         50               0                50               0                
60                             0.0983742875999076 -39.7551551967259 0.809646313944347 26.0455636894431 0.809646313944347 26.0455636894431 0.0981300286974114 -39.4834626019746 
! Gamma         88.3370845648614 2920.29510471008 88.2018999570021 2916.96528428073 
! Port Impedance         50               0                50               0                
61                             0.0828270781409434 -39.7601292553902 0.808473008062663 20.4353438972127 0.808473008062664 20.4353438972127 0.0825382187355868 -39.4378852680217 
! Gamma         89.6519785229511 2968.94490899579 89.5138324149903 2965.56033149953 
! Port Impedance         50               0                50               0                
62                             0.0677282862880587 -37.2328267162343 0.807106760125331 14.8093031938871 0.807106760125331 14.8093031938871 0.0673941921169924 -36.8317357497368 
! Gamma         90.9659737117462 3017.60215463176 90.824878504138  3014.16282272135 
! Port Impedance         50               0                50               0                
63                             0.0541861623286301 -30.3803213808472 0.805511644011635 9.17046562110581 0.805511644011635 9.17046562110581 0.0538193154020313 -29.8329861242465 
! Gamma         92.279147340003  3066.26701126611 92.1351153176457 3062.77292685389 
! Port Impedance         50               0                50               0                
64                             0.0442796680222756 -16.7884111219758 0.803661320092159 3.52230160046648 0.803661320092159 3.52230160046648 0.0439321695771098 -15.9677181279795 
! Gamma         93.5915724797781 3114.93964660451 93.444615801829  3111.39081089317 
! Port Impedance         50               0                50               0                
65                             0.0410678066409028 3.18338453660833 0.801540113320241 -2.13141205423203 0.801540113320242 -2.13141205423203 0.0408521775417256 4.33510786517576 
! Gamma         94.9033183366077 3163.62022666554 94.7534490320479 3160.01664019271 
! Port Impedance         50               0                50               0                
66                             0.0459442364091918 21.9964382189483 0.799143594049972 -7.78674649347496 0.799143594049972 -7.78674649347496 0.0459434978086535 23.2767425234443 
! Gamma         96.2144505037121 3212.30891601767 96.061680466068  3208.65057867893 
! Port Impedance         50               0                50               0                
67                             0.0565892046948714 33.7106435521075 0.796478617573891 -13.4397817251738 0.79647861757389 -13.4397817251738 0.0567895410269749 34.9553599345538 
! Gamma         97.5250312044832 3261.00587798074 97.3693721904708 3257.29278905733 
! Port Impedance         50               0                50               0                
68                             0.0700221354832544 39.2753248076822 0.793562819335522 -19.0867656459067 0.793562819335522 -19.0867656459068 0.0703870020206538 40.4738218136823 
! Gamma         98.835119523951  3309.71127479375 98.6765831489974 3305.94343298882 
! Port Impedance         50               0                50               0                
69                             0.0844502729511168 41.0698513293328 0.790423604610321 -24.724262967746 0.790423604610321 -24.724262967746 0.0849578265081927 42.2531198876136 
! Gamma         100.144771620272 3358.42526778605 99.9833693606979 3354.60267124491 
! Port Impedance         50               0                50               0                
70                             0.0989346292120178 40.6615380936836 0.78709670861266 -30.3492866617252 0.78709670861266 -30.3492866617252 0.0995764443389348 41.8588435695208 
! Gamma         101.454040931762 3407.14801750477 101.289784122814 3403.27066384104 
! Port Impedance         50               0                50               0                
71                             0.112946854970036 38.9253756046354 0.783624430804054 -35.9594059851465 0.783624430804054 -35.9594059851465 0.11372266237787 40.1592843448714 
! Gamma         102.762978364592 3455.87968383926 102.595878202032 3451.94757016451 
! Port Impedance         50               0                50               0                
72                             0.126154981229155 36.3529072541246 0.780053662732397 -41.5528269900706 0.780053662732397 -41.5528269900706 0.12706946029653 37.6411625508053 
! Gamma         104.071632474259 3504.62042612425 103.901700016112 3500.63354906242 
! Port Impedance         50               0                50               0                
73                             0.1383307347372  33.2328321540533 0.776433831288052 -47.1284433928017 0.776433831288052 -47.1284433928017 0.139391856620538 34.5903794803382 
! Gamma         105.380049631855 3553.3704032361  105.207295800356 3549.32875894952 
! Port Impedance         50               0                50               0                
74                             0.149307818341592 29.7432901891016 0.772814870138823 -52.6858575838619 0.772814870138823 -52.6858575838619 0.150526022875124 31.1836897456499 
! Gamma         106.688274181725 3602.12977366194 106.51270976569  3598.03335787412 
! Port Impedance         50               0                50               0                
75                             0.158961586909607 25.9993432193052 0.769245314212466 -58.2253731993871 0.769245314212466 -58.2253731993871 0.160349401404411 27.535718263287  
! Gamma         107.99634858691  3650.898695586   107.81798424526  3646.74750359408 
! Port Impedance         50               0                50               0                
76                             0.167198177721321 22.0784130992544 0.765770589104077 -63.7479619287701 0.765770589104077 -63.7479619287701 0.168770086755188 23.724123614824  
! Gamma         109.304313568161 3699.67732693448 109.123159831351 3695.47135363524 
! Port Impedance         50               0                50               0                
77                             0.173948094622822 18.0345860710857 0.762431542949441 -69.255208058334 0.762431542949441 -69.255208058334 0.175720570185901 19.8037568659192 
! Gamma         110.612208229161 3748.46582543808 110.428275504847 3744.20506533937 
! Port Impedance         50               0                50               0                
78                             0.179162056246017 13.907069404685  0.75926324576653 -74.7492346673783 0.75926324576653 -74.7492346673784 0.181153707741437 15.8150544095769 
! Gamma         111.920070176739 3797.26434867319 111.733368751968 3792.94879591218 
! Port Impedance         50               0                50               0                
79                             0.182808115804143 9.72545754438644 0.756294062734539 -80.2326154619441 0.756294062734538 -80.2326154619441 0.185039946676684 11.7892946281091 
! Gamma         113.227935632189 3846.07305409735 113.038475677288 3841.70270246082 
! Port Impedance         50               0                50               0                
80                             0.184869593615871 5.51320527968628 0.753544994540109 -85.7082760535933 0.753544994540108 -85.7082760535933 0.187365368814352 7.75210195276296 
! Gamma         114.535839532277 3894.89209909522 114.343631105073 3890.46694202807 
! Port Impedance         50               0                50               0                
81                             0.18534360879646 1.29008175373688 0.751029269953353 -91.1793881672615 0.751029269953353 -91.1793881672615 0.188130351403322 3.72596639273104 
! Gamma         115.843815626954 3943.72164099422 115.648868675888 3939.24167161627 
! Port Impedance         50               0                50               0                
82                             0.184240110482206 -2.92593726501837 0.748752172656594 -96.6492598923455 0.748752172656594 -96.6492598923455 0.187348760452044 -0.267764680004597 
! Gamma         117.151896566604 3992.56183709628 116.954220935887 3988.02704822018 
! Port Impedance         50               0                50               0                
83                             0.18158136159303 -7.11704044465169 0.746711084986669 -102.121224751016 0.746711084986669 -102.121224751016 0.18504764758126 -4.20712174202277 
! Gamma         118.46011398553  4041.4128447002  118.259719418382 4036.82322883582 
! Port Impedance         50               0                50               0                