! Touchstone file exported from HFSS 2024.2.0
!        File:           C:/Users/vaintrug/Documents/Ansoft_Workspace/Comparaison_Calculs_HFSS/1_VarPort.aedt
!        Generated:      03:22:19 PM Jan 21, 2025
!        Design:         1_NoDeembed_FacePortFree
!        Project:        1_VarPort
!        Setup:          Setup1
!        Solution:       Sweep
!
! Variables:
!        $Lenght = 2000um
!        $PortSize = 280um
!        Gap = 30um
!        Th = 2um
!        X_centralStrip = 20um
!        X_masse = 200um
!        Y_Sub = 2mm
!        Z_Box = 400um
!        Z_Sub = 200um
!
# GHz S MA R 50.000000
! Terminal data exported
! Port[1] = 1
! Port[2] = 2
1                              0.0292157546662917 62.4177020889331 0.9854043971273  -5.91829546107204 0.9854043971273  -5.91829546107204 0.029217049012885 62.409812962052  
! Gamma         5.76110104155851 49.6454561226433 5.91499333582332 50.0210985288031 
! Port Impedance         50               0                50               0                
2                              0.0524438459471466 67.3108665049607 0.981716237098268 -11.6937243897008 0.981716237098268 -11.6937243897008 0.05244122833794 67.2964483359126 
! Gamma         7.44157057278308 98.0326411901503 7.73440305766739 98.6208317077599 
! Port Impedance         50               0                50               0                
3                              0.0757979262470276 65.9689253333405 0.977947729433333 -17.4682259107422 0.977947729433333 -17.4682259107422 0.0757899583589503 65.951186232184  
! Gamma         8.80826568037329 146.484217132891 9.17152029683209 147.245879154881 
! Port Impedance         50               0                50               0                
4                              0.098539129569033 62.5763161160485 0.973718211768947 -23.2314198269027 0.973718211768947 -23.2314198269027 0.0985256099435323 62.5552982096946 
! Gamma         10.108588201744  194.999776376823 10.5127467621937 195.940714892917 
! Port Impedance         50               0                50               0                
5                              0.120218663339439 58.2993098373072 0.969014767246137 -28.9733101679526 0.969014767246137 -28.9733101679526 0.120199367991423 58.2747440448688 
! Gamma         11.4057257546672 243.542940537528 11.8406709305796 244.670390852385 
! Port Impedance         50               0                50               0                
6                              0.140526949717833 53.5846567811933 0.963913903550971 -34.6869800172241 0.963913903550971 -34.6869800172242 0.140501592703399 53.5562961062842 
! Gamma         12.7177158094571 292.092724757207 13.1803760857214 293.411156388173 
! Port Impedance         50               0                50               0                
7                              0.159230379521812 48.6386491910511 0.95852362758268 -40.3678362626043 0.95852362758268 -40.3678362626043 0.159198650449466 48.6062832382111 
! Gamma         14.0496839901194 340.637302385313 14.539659546219  342.148994635146 
! Port Impedance         50               0                50               0                
8                              0.176148258198691 43.5692058640873 0.952963808545094 -46.0132353846776 0.952963808545094 -46.0132353846776 0.176109852875193 43.5326439891468 
! Gamma         15.4021964120686 389.169575940938 15.9201278012869 390.875370582866 
! Port Impedance         50               0                50               0                
9                              0.191142287391748 38.437731714648  0.947355840310924 -51.6222756958434 0.947355840310924 -51.6222756958434 0.191096929752656 38.3967874202193 
! Gamma         16.7739323237301 437.685101398764 17.3208336449443 439.584913753189 
! Port Impedance         50               0                50               0                
10                             0.204109951914129 33.2810982139757 0.941815736769804 -57.1956222020006 0.941815736769804 -57.1956222020006 0.20405740963137 33.2355769432972 
! Gamma         18.1627266811095 486.181093897055 18.7396904860668 488.27423621015  
! Port Impedance         50               0                50               0                
11                             0.214979181913209 28.1221185521885 0.936449182969931 -62.735320815098 0.93644918296993 -62.735320815098 0.214919277198112 28.0718076145606 
! Gamma         19.5660538186207 534.655906188019 20.1741133462698 536.941295565201 
! Port Impedance         50               0                50               0                
12                             0.223703572946012 22.9750622670278 0.931348049885594 -68.2445944430373 0.931348049885594 -68.2445944430373 0.223636189347294 22.9197216103969 
! Gamma         20.9812850177786 583.108722556068 21.6213491626476 585.585019912722 
! Port Impedance         50               0                50               0                
13                             0.230258075694471 17.8488360165205 0.926588106047475 -73.7276257928893 0.926588106047475 -73.7276257928893 0.230183161278801 17.7881888227201 
! Gamma         22.4058389913078 631.539357872375 23.078663810314  634.205064363626 
! Port Impedance         50               0                50               0                
14                             0.234635251246538 12.7489904814274 0.922227705741253 -79.1893347330924 0.922227705741253 -79.1893347330924 0.234552818308593 12.6827127342584 
! Gamma         23.8372736924194 679.948111954239 24.5434535785874 682.801638301217 
! Port Impedance         50               0                50               0                
15                             0.236842210511355 7.67911063548548 0.918307248905272 -84.635157355445 0.918307248905273 -84.635157355445 0.236752331762764 7.6068187551568  
! Gamma         25.2733418105376 728.335656608381 26.0133117723509 731.375373974129 
! Port Impedance         50               0                50               0                
16                             0.236898322479424 2.64188162192807 0.914849229741869 -90.0708319687461 0.914849229741869 -90.0708319687461 0.236801123483949 2.56311718889454 
! Gamma         26.7120218167743 776.702944077637 27.4860662330997 779.927221808147 
! Port Impedance         50               0                50               0                
17                             0.234833729206164 -2.35999731591333 0.911858724263213 -95.5021952510171 0.911858724263213 -95.5021952510171 0.234729376549362 -2.44578716997178 
! Gamma         28.1515317424542 825.05113140498  28.9597967716687 828.458365086787 
! Port Impedance         50               0                50               0                
18                             0.230688661352195 -7.32292916900654 0.909324207578792 -100.934990270977 0.909324207578792 -100.934990270977 0.230577345693804 -7.4164175490869 
! Gamma         29.5903306021865 873.381517584973 30.432838514393  876.970149641383 
! Port Impedance         50               0                50               0                
19                             0.224513513136704 -12.2414548430837 0.90721863366043 -106.374687185975 0.907218633660429 -106.374687185975 0.224395425718649 -12.3434699104503 
! Gamma         31.0271110539205 921.695491722171 31.9037753256709 925.464026148117 
! Port Impedance         50               0                50               0                
20                             0.216369610965682 -17.1070763070458 0.905500748447136 -111.826317196297 0.905500748447136 -111.826317196297 0.216244911302534 -17.218649348627 
! Gamma         32.4607860836552 969.994490699445 33.3714264780375 973.941503168949 
! Port Impedance         50               0                50               0                
21                             0.206330597354759 -21.9066746980341 0.904116637544937 -117.294320655449 0.904116637544938 -117.294320655449 0.206199368392093 -22.0291081508272 
! Gamma         33.8904718754297 1018.27996527464 34.8348289787061 1022.40410952851 
! Port Impedance         50               0                50               0                
22                             0.194484356908589 -26.6202042687997 0.903001529550549 -122.782410999157 0.903001529550549 -122.782410999157 0.194346541504281 -26.7551704073303 
! Gamma         35.3154685191453 1066.55335343529 36.2932174139863 1070.85336477812 
! Port Impedance         50               0                50               0                
23                             0.180935449926907 -31.2170867293029 0.902081883202962 -128.293457129824 0.902081883202962 -128.293457129824 0.180790758085418 -31.3667748632749 
! Gamma         36.7352398972542 1114.81606009897 37.7460027218776 1119.29075657592 
! Port Impedance         50               0                50               0                
24                             0.165808130323058 -35.6501969712294 0.901277780053771 -133.829387919654 0.901277780053769 -133.829387919654 0.165655898204592 -35.8175396903451 
! Gamma         38.1493935914035 1163.0694421717  39.1927509165414 1167.71772392722 
! Port Impedance         50               0                50               0                
25                             0.149250302734594 -39.8451581919612 0.900505624190624 -139.391123332159 0.900505624190624 -139.391123332159 0.149089267558476 -40.0341903615545 
! Gamma         39.5576615622046 1211.31479803739 40.6331625172179 1216.13564538629 
! Port Impedance         50               0                50               0                
26                             0.131439471092737 -43.679896673981 0.899681118038485 -144.978537079005 0.899681118038485 -144.978537079005 0.131267389757819 -43.8963432361275 
! Gamma         40.9598820084223 1259.55336075467 42.0670531792542 1264.54583118596 
! Port Impedance         50               0                50               0                
27                             0.112593583065921 -46.9422834173098 0.898722441839237 -150.590455545571 0.898722441839236 -150.590455545571 0.112406539144779 -47.1945424199576 
! Gamma         42.3559826882561 1307.78629418438 43.4943358278022 1312.94951868482 
! Port Impedance         50               0                50               0                
28                             0.0929951346697106 -49.2333411103468 0.897553519257494 -156.224696768112 0.897553519257494 -156.224696768112 0.0927861738782687 -49.5340870975854 
! Gamma         43.7459658389808 1356.01469146381 44.9150044692024 1361.34787037754 
! Port Impedance         50               0                50               0                
29                             0.0730554620804083 -49.7179417966675 0.896107209912659 -161.878151505471 0.89610720991266 -161.878151505471 0.0728116737074277 -50.0860892873463 
! Gamma         45.1298947403629 1404.23957527109 46.329119726209  1409.74197386754 
! Port Impedance         50               0                50               0                
30                             0.0535214411636068 -46.3894336140051 0.894328239435865 -167.546905960754 0.894328239435865 -167.546905960754 0.0532175049798806 -46.8460849472493 
! Gamma         46.5078818956937 1452.46189945726 47.7367960917254 1458.13284336766 
! Port Impedance         50               0                50               0                
31                             0.0362818497134492 -33.7804444537011 0.892175666524172 -173.226402728789 0.892175666524172 -173.226402728789 0.0358718172672898 -34.2731739981733 
! Gamma         47.8800787424666 1500.68255163422 49.1381908041348 1506.52142228579 
! Port Impedance         50               0                50               0                
32                             0.0271998575134389 -1.56414114547085 0.889624699629469 -178.911633404398 0.889624699629469 -178.911633404398 0.0266972914020475 -1.56293903334761 
! Gamma         49.2466667987673 1548.90235646145 50.5334942553331 1554.90858658033 
! Port Impedance         50               0                50               0                
33                             0.0337802689607659 33.7392885222878 0.886667714761877 175.402646579282 0.886667714761877 175.402646579282 0.0334080390195141 34.2779399346355 
! Gamma         50.6078501144604 1597.12207936208 51.922921796496  1603.29514861789 
! Port Impedance         50               0                50               0                
34                             0.0498523995514278 48.901873161854  0.88331438694134 169.721692467007 0.88331438694134 169.721692467007 0.0496173687488299 49.3723895999077 
! Gamma         51.9638488879623 1645.34243048824 53.3067067993836 1651.68186134603 
! Port Impedance         50               0                50               0                
35                             0.0685458870936257 53.2814745869955 0.879590923071362 164.050546719062 0.879590923071362 164.050546719062 0.0683839186680157 53.6346948770166 
! Gamma         53.3148941405328 1693.56406876209 54.6850948428145 1700.0694225448  
! Port Impedance         50               0                50               0                
36                             0.0875944226425364 53.308210321692  0.875538462270116 158.393830091629 0.875538462270117 158.393830091629 0.0874724550707414 53.5788852382445 
! Gamma         54.6612232919214 1741.78760595304 56.0583388871972 1748.45847912242 
! Port Impedance         50               0                50               0                
37                             0.106167819321592 51.3341647489178 0.871210779132064 152.755558380299 0.871210779132064 152.755558380299 0.106069790469656 51.5484438457306 
! Gamma         56.003076545055  1790.01361061709 57.4266953082492 1796.84963135712 
! Port Impedance         50               0                50               0                
38                             0.123845588977157 48.3149417396654 0.866671476022015 147.138993561929 0.866671476022015 147.138993561929 0.123763173666395 48.4892479861812 
! Gamma         57.3406939489951 1838.24261189938 58.7904206777237 1845.24343691138 
! Port Impedance         50               0                50               0                
39                             0.140359935127099 44.6983532186157 0.861990876317758 141.546535035789 0.861990876317757 141.546535035789 0.140288680581236 44.8432286575356 
! Gamma         58.6743130585308 1886.4751031564  60.1497691863833 1893.64041472393 
! Port Impedance         50               0                50               0                
40                             0.155518028519583 40.7195498736444 0.857242830412403 135.979653436484 0.857242830412403 135.979653436484 0.155455652634821 40.8421069217208 
! Gamma         60.0041670899438 1934.71154535999 61.5049906044057 1942.04104864974 
! Port Impedance         50               0                50               0                
41                             0.169173396930533 36.5131663193408 0.852501623708151 130.438866482683 0.852501623708151 130.438866482683 0.16911896914589 36.6184639982916 
! Gamma         61.3304835037526 1982.9523702458  62.8563287097611 1990.44579085357 
! Port Impedance         50               0                50               0                
42                             0.181213228416956 32.1615476550493 0.84783913742393 124.923753846246 0.847839137423929 124.923753846246 0.181166744203113 32.2533780023832 
! Gamma         62.653482936314  2031.19798328556 64.2040200994157 2038.85506498615 
! Port Impedance         50               0                50               0                
43                             0.191551533769827 27.7177165565364 0.843322366837226 119.433006277853 0.843322366837226 119.433006277853 0.191513681120819 27.7990753553041 
! Gamma         63.9733784311254 2079.44876637091 65.5482933246517 2087.26926908371 
! Port Impedance         50               0                50               0                
44                             0.200124721422851 23.2172834561941 0.839011355163572 113.964503244024 0.839011355163574 113.964503244024 0.200096749194883 23.290668083991  
! Gamma         65.2903749112175 2127.70508030559 66.8893682914622 2135.68877825817 
! Port Impedance         50               0                50               0                
45                             0.206888320602174 18.6851020354446 0.834957560669915 108.515413041534 0.834957560669916 108.515413041534 0.206871965548579 18.7527121625333 
! Gamma         66.604668855401  2175.96726707024 68.2274558871165 2184.11394713454 
! Port Impedance         50               0                50               0                
46                             0.211814388559378 14.1392608911196 0.831202643518543 103.082309621721 0.831202643518543 103.082309621721 0.211811839420318 14.2031440141005 
! Gamma         67.9164481335479 2224.23565188675 69.5627577750944 2232.54511209093 
! Port Impedance         50               0                50               0                
47                             0.214889447914294 9.59366044169205 0.827777638787752 97.6613009765253 0.827777638787752 97.6613009765253 0.214903335562765 9.65582700464911 
! Gamma         69.2258919697061 2272.51054509599 70.8954663465658 2280.98259326597 
! Port Impedance         50               0                50               0                
48                             0.216112919427819 5.05982232617717 0.82470247274358 92.2481647356017 0.82470247274358 92.2481647356017 0.216146327885842 5.1223462304638  
! Gamma         70.533171021675  2320.79224384275 72.2257647775112 2329.42669640895 
! Port Impedance         50               0                50               0                
49                             0.215496055755255 0.548294927414989 0.821985779171393 86.8384874249045 0.821985779171393 86.8384874249045 0.215552552529431 0.613410764208447 
! Gamma         71.8384475276525 2369.08103361289 73.5538271814416 2377.87771451758 
! Port Impedance         50               0                50               0                
50                             0.213061389056069 -3.93011619486032 0.819624979097366 81.4278045154657 0.819624979097366 81.4278045154657 0.213145076047497 -3.85990978852867 
! Gamma         73.1418755257716 2417.37718960952 74.879818833184  2426.33592934899 
! Port Impedance         50               0                50               0                
51                             0.208842700667569 -8.36312143792538 0.817606597943881 76.0117388683926 0.817606597943881 76.0117388683926 0.208958289716689 -8.28494308628337 
! Gamma         74.4436011171043 2465.68097798868 76.2038964403393 2474.80161275195 
! Port Impedance         50               0                50               0                
52                             0.202885515295327 -12.7355603434713 0.815906806519475 70.5861354039997 0.815906806519475 70.5861354039997 0.203038435918589 -12.6460015231362 
! Gamma         75.7437627645666 2513.99265698417 77.5262084631846 2523.27502787347 
! Port Impedance         50               0                50               0                
53                             0.195248123405851 -17.0276558779835 0.814492183853168 65.1471897899485 0.814492183853168 65.1471897899485 0.195444675294935 -16.9225979659883 
! Gamma         77.0424916174809 2562.31247789782 78.8468954517714 2571.75643024243 
! Port Impedance         50               0                50               0                
54                             0.186003153903074 -21.2126197521298 0.813320708578679 59.6915686935268 0.813320708578679 59.6915686935268 0.186250724523153 -21.0869960504144 
! Gamma         78.3399118473894 2610.64068599568 80.166090407356  2620.24606874694 
! Port Impedance         50               0                50               0                
55                             0.175239772360585 -25.2531360132783 0.812342989555049 54.2165187199512 0.812342989555049 54.2165187199512 0.175547152572003 -25.100617917572 
! Gamma         79.6361409957833 2658.97752131696 81.4839191543211 2668.74418649461 
! Port Impedance         50               0                50               0                
56                             0.163066704216046 -29.095895581392 0.811503744225834 48.7199606858917 0.811503744225834 48.7199606858917 0.163444555806703 -28.9084795557482 
! Gamma         80.9312903264139 2707.32321938368 82.8005007128293 2717.2510215954  
! Port Impedance         50               0                50               0                
57                             0.149616555212422 -32.6626539695511 0.810743524068155 43.2005654368029 0.810743524068154 43.2005654368028 0.150078119749941 -32.4301345092405 
! Gamma         82.225465170904  2755.67801184537 84.1159476723787 2765.76680785146 
! Port Impedance         50               0                50               0                
58                             0.13505250215538 -35.8348510166607 0.810000670271657 37.6578071726438 0.810000670271657 37.6578071726438 0.135614700615181 -35.5442161474673 
! Gamma         83.5187652737077 2804.04212705368 85.4303665601804 2814.2917753875  
! Port Impedance         50               0                50               0                
59                             0.119579792826484 -38.4257797542852 0.80921346051906 32.0919903178907 0.809213460519059 32.0919903178907 0.120264961655349 -38.0607689177859 
! Gamma         84.8112851275746 2852.41579058102 86.7438582048268 2862.82615119762 
! Port Impedance         50               0                50               0                
60                             0.103467760955931 -40.1275845606118 0.808322381607263 26.5042464662215 0.808322381607263 26.5042464662215 0.104306390302401 -39.6693885949666 
! Gamma         86.1031143001777 2900.79922565889 88.0565180825695 2911.37015964322 
! Port Impedance         50               0                50               0                
61                             0.0870963361472692 -40.4057135115584 0.807272435960133 20.8964989482251 0.807272435960133 20.8964989482251 0.0881311218134263 -39.8384765445533 
! Gamma         87.3943377483221 2949.19265361497 89.3684366597952 2959.92402289374 
! Port Impedance         50               0                50               0                
62                             0.0710627258671362 -38.2863818089399 0.80601536715914 15.2713940788163 0.80601536715914 15.2713940788163 0.0723527363214428 -37.6208618155301 
! Gamma         88.6850361232025 2997.59629421775 90.6796997184199 3008.48796133092 
! Port Impedance         50               0                50               0                
63                             0.0564360114254316 -31.9847851698953 0.804511674964651 9.63220009744303 0.804511674964652 9.63220009744303 0.0580500441194377 -31.3444189073035 
! Gamma         89.9752860561486 3046.0103660162  91.9903886673657 3057.06219388896 
! Port Impedance         50               0                50               0                
64                             0.0452874220476377 -18.8113809415859 0.80273228796539 3.98267701980361 0.80273228796539 3.98267701980361 0.0472351018831349 -18.6528956664776 
! Gamma         91.2651604379463 3094.43508662647 93.3005808409592 3105.64693837905 
! Port Impedance         50               0                50               0                
65                             0.0409562039869721 1.73612637756868 0.800659774440131 -1.67307714902522 0.800659774440131 -1.67307714902522 0.0429920392903748 0.663669444720333 
! Gamma         92.5547286814236 3142.87067299996 94.6103497828413 3154.24241177444 
! Port Impedance         50               0                50               0                
66                             0.0454159173284267 22.00697032353   0.798288999454299 -7.33079642760655 0.7982889994543  -7.33079642760655 0.0471087220971067 19.8540010425728 
! Gamma         93.8440569699631 3191.31734165852 95.9197655148443 3202.84883045498 
! Port Impedance         50               0                50               0                
67                             0.0563339700070717 34.7613397653708 0.795627176156187 -12.9862242602281 0.795627176156186 -12.9862242602281 0.0575390274567278 32.3485380811178 
! Gamma         95.1332084950293 3239.7753089042  97.2288947915466 3251.4664104442  
! Port Impedance         50               0                50               0                
68                             0.0703411395689301 40.8103980424919 0.792693306794105 -18.6352887988106 0.792693306794105 -18.6352887988106 0.0711375371345309 38.5076546483138 
! Gamma         96.4222436774601 3288.24479101997 98.5378013413647 3300.09536760915 
! Port Impedance         50               0                50               0                
69                             0.0854263606738856 42.8223739315658 0.789517057688843 -24.2742667358759 0.789517057688843 -24.2742667358759 0.0859112138378804 40.6849589136632 
! Gamma         97.7112203802031 3336.72600443049 99.8465460934947 3348.73591784738 
! Port Impedance         50               0                50               0                
70                             0.100567503148434 42.5268778082933 0.786137155562755 -29.8999273695642 0.786137155562754 -29.8999273695642 0.100809036092237 40.5273628898703 
! Gamma         99.0001941048633 3385.21916586664 101.155187391463 3397.38827724965 
! Port Impedance         50               0                50               0                
71                             0.115203465541573 40.865863512091  0.782599424619611 -35.5096502765742 0.78259942461961 -35.5096502765742 0.115245518995764 38.966350241827  
! Gamma         100.28921817856  3433.7244925149  102.463781193819 3446.05266225742 
! Port Impedance         50               0                50               0                
72                             0.128987357190372 38.3581597964318 0.778954601148376 -41.1015120967577 0.778954601148375 -41.1015120967577 0.128857994619554 36.5256387508527 
! Gamma         101.578343929502 3482.24220213572 103.772381265516 3494.72928980064 
! Port Impedance         50               0                50               0                
73                             0.141683193047666 35.3042030426442 0.775256064397795 -46.6743402281019 0.775256064397795 -46.6743402281019 0.141400558833252 33.5120617671582 
! Gamma         102.867620851755 3530.77251319551 105.081039351805 3543.41837742068 
! Port Impedance         50               0                50               0                
74                             0.153120531071141 31.887599475074  0.771557610792506 -52.2277334035093 0.771557610792505 -52.2277334035093 0.152696364697731 30.1143732682363 
! Gamma         104.157096760147 3579.31564497272 106.389805347815 3592.1201433869  
! Port Impedance         50               0                50               0                
75                             0.163172745833205 28.226265947418  0.767911376817446 -57.7620509722935 0.767911376817446 -57.7620509722935 0.162614456496456 26.454176600713  
! Gamma         105.446817933588 3627.87181766385 107.698727453124 3640.83480681062 
! Port Impedance         50               0                50               0                
76                             0.171745526628164 24.3994022275108 0.764365988598977 -63.2783740890188 0.764365988598977 -63.2783740890188 0.17105742462039 22.6131684790985 
! Gamma         106.736829253433 3676.44125247422 109.007852317949 3689.56258773839 
! Port Impedance         50               0                50               0                
77                             0.178770121392113 20.4624912198388 0.760964987805134 -68.7784428857717 0.760964987805133 -68.7784428857717 0.177954147086318 18.6484245617371 
! Gamma         108.027174328653 3725.02417172427 110.317225181362 3738.30370725124 
! Port Impedance         50               0                50               0                
78                             0.184198976597204 16.4561076956056 0.757745557658256 -74.2645740978811 0.757745557658256 -74.2645740978811 0.183255116662658 14.6014204866101 
! Gamma         109.317895616616 3773.6207989215  111.626889998306 3787.0583875491  
! Port Impedance         50               0                50               0                
79                             0.188002728990177 12.4113950527367 0.75473755210209 -79.7395636139082 0.75473755210209 -79.7395636139082 0.186929224621934 10.5036484329737 
! Gamma         110.609034534852 3822.23135884912 112.936889560468 3835.8268520398  
! Port Impedance         50               0                50               0                
80                             0.190168077923143 8.35369716920302 0.751962816698583 -85.206578144413 0.751962816698585 -85.206578144413 0.188961481238721 6.38033141547339 
! Gamma         111.900631566191 3870.85607765097 114.247265608711 3884.60932541916 
! Port Impedance         50               0                50               0                
81                             0.190696327341109 4.30516391425803 0.749434781744323 -90.6690397880857 0.749434781744323 -90.6690397880857 0.189351432350082 2.25306706112979 
! Gamma         113.192726356527 3919.49518290231 115.558058939215 3933.40603374475 
! Port Impedance         50               0                50               0                
82                             0.189602507390657 0.286815334056349 0.747158305604741 -96.1305068060968 0.747158305604741 -96.1305068060968 0.188112161449711 -1.85810548670439 
! Gamma         114.485357808745 3968.14890368894 116.869309502236 3982.21720451856 
! Port Impedance         50               0                50               0                
83                             0.186915043803509 -3.67961430483686 0.745129748034703 -101.594553521614 0.745129748034703 -101.594553521614 0.185269828607555 -5.93288964378151 
! Gamma         115.778564168174 4016.81747068107 118.181056493906 4031.0430667617  
! Port Impedance         50               0                50               0                