! Touchstone file exported from HFSS 2024.2.0
!        File:           C:/Users/vaintrug/Documents/Ansoft_Workspace/Comparaison_Calculs_HFSS/1_VarPort.aedt
!        Generated:      03:22:19 PM Jan 21, 2025
!        Design:         1_NoDeembed_FacePortFree
!        Project:        1_VarPort
!        Setup:          Setup1
!        Solution:       Sweep
!
! Variables:
!        $Lenght = 2000um
!        $PortSize = 380um
!        Gap = 30um
!        Th = 2um
!        X_centralStrip = 20um
!        X_masse = 200um
!        Y_Sub = 2mm
!        Z_Box = 400um
!        Z_Sub = 200um
!
# GHz S MA R 50.000000
! Terminal data exported
! Port[1] = 1
! Port[2] = 2
1                              0.028227318365475 61.6806537175282 0.985416496509647 -5.90859479283266 0.985416496509647 -5.90859479283266 0.0282243999619411 61.6725150285022 
! Gamma         5.88260655063815 49.7836643526002 6.01152696670409 50.0665454648552 
! Port Impedance         50               0                50               0                
2                              0.0504451922798626 66.9673458613423 0.981813436726082 -11.6790350523179 0.981813436726082 -11.6790350523179 0.0504353104306296 66.9611738149184 
! Gamma         7.59248691654983 98.2411900070797 7.79675713475744 98.7202521754262 
! Port Impedance         50               0                50               0                
3                              0.0728441235929735 65.7970083922875 0.978151842074421 -17.4493636325098 0.978151842074421 -17.4493636325098 0.0728274424361646 65.7921174334708 
! Gamma         8.97227976290346 146.76806748056  9.22146955010523 147.422174795568 
! Port Impedance         50               0                50               0                
4                              0.0946791092230533 62.4956448402474 0.974061756455984 -23.2097015420815 0.974061756455984 -23.2097015420816 0.0946554500245918 62.4911745737679 
! Gamma         10.2815703807838 195.363171934711 10.560696817239  196.192599611598 
! Port Impedance         50               0                50               0                
5                              0.11550834313659 58.2728334741998 0.96952655499242 -28.9505670203751 0.96952655499242 -28.9505670203752 0.1154773270969  58.2682263698554 
! Gamma         11.5869649263798 243.98817607469  11.8900803334241 244.995285256354 
! Port Impedance         50               0                50               0                
6                              0.135029589127636 53.5919277164099 0.964615469571732 -34.6654115310416 0.964615469571732 -34.6654115310416 0.134990757508773 53.5867416803229 
! Gamma         12.9074846955336 292.620939569031 13.2323867313009 293.807437266436 
! Port Impedance         50               0                50               0                
7                              0.153015011038682 48.6667699727077 0.959427979681912 -40.3498752641019 0.959427979681911 -40.3498752641019 0.152967881290386 48.6605776203215 
! Gamma         14.2485327972945 341.249021381319 14.5946446558262 342.615813428299 
! Port Impedance         50               0                50               0                
8                              0.169287769396455 43.6092153434764 0.95407515851853 -46.0014228780631 0.95407515851853 -46.0014228780632 0.169231867212143 43.6015497416235 
! Gamma         15.6107239746601 389.864996560495 15.9782028741191 391.412369718773 
! Port Impedance         50               0                50               0                
9                              0.183711618810773 38.4829890947038 0.948669937503559 -51.6191463565791 0.948669937503558 -51.6191463565791 0.183646497599626 38.4733070361221 
! Gamma         16.9927055070435 438.464247273636 17.3820343600124 440.192044554485 
! Port Impedance         50               0                50               0                
10                             0.19618460365734 33.3265035851601 0.943320605433265 -57.2036028257698 0.943320605433265 -57.2036028257698 0.196109853803275 33.3141541924768 
! Gamma         18.3922510513948 487.043902045259 18.8040371261455 488.95165346181  
! Port Impedance         50               0                50               0                
11                             0.206634108569297 28.163718897321  0.938126117058338 -62.7566436717921 0.938126117058337 -62.7566436717921 0.206549356525261 28.147911742925  
! Gamma         19.806764143003  535.602280130797 20.24163416225   537.689296534632 
! Port Impedance         50               0                50               0                
12                             0.215012480388674 23.0098481726177 0.933172748780936 -68.2812264248675 0.933172748780936 -68.2812264248675 0.214917377135824 22.9896173631237 
! Gamma         21.2335442645921 584.138567000904 21.692088295704  586.404008181282 
! Port Impedance         50               0                50               0                
13                             0.221293090577441 17.8746383538663 0.928531862521204 -73.7812132045256 0.928531862521203 -73.7812132045256 0.221187288866468 17.8487996071417 
! Gamma         22.6699414430636 632.652602433916 23.1526832037612 635.095527686633 
! Port Impedance         50               0                50               0                
14                             0.22546690719903 12.7644328865265 0.924258584929473 -79.2611628434965 0.924258584929474 -79.2611628434965 0.225350026834203 12.7315303256749 
! Gamma         24.1134501564983 681.144728087292 24.6208325028685 683.764134474393 
! Port Impedance         50               0                50               0                
15                             0.227539680587946 7.68359631196984 0.920391221988003 -84.7261234156726 0.920391221988003 -84.7261234156726 0.227411260634278 7.64183483073026 
! Gamma         25.5617659190237 729.615669845017 26.0941454720587 732.410521537456 
! Port Impedance         50               0                50               0                
16                             0.227529821690732 2.63560513860969 0.916951246319838 -90.1814303347755 0.916951246319839 -90.1814303347756 0.227389257781933 2.58276267945624 
! Gamma         27.0128167879124 778.066442841711 27.5704641851591 781.035693841951 
! Port Impedance         50               0                50               0                
17                             0.225467010984936 -2.37601521541924 0.913943721954674 -95.6325134059036 0.913943721954675 -95.6325134059036 0.225313474727011 -2.44270351796587 
! Gamma         28.4647772473987 826.498273274369 29.0478808766926 829.640884889135 
! Port Impedance         50               0                50               0                
18                             0.221391535440201 -7.34677993145321 0.911358065791655 -101.084714839644 0.911358065791656 -101.084714839644 0.221223871014484 -7.43077759599106 
! Gamma         29.9160694516213 874.912533621891 30.5247413124396 878.227487853135 
! Port Impedance         50               0                50               0                
19                             0.215354318329976 -12.2702439125989 0.909169081159534 -106.543119387766 0.909169081159534 -106.543119387766 0.215170908402579 -12.3759266894043 
! Gamma         31.3653555453225 923.310689221937 31.9996382705842 926.796998817066 
! Port Impedance         50               0                50               0                
20                             0.20741758394371 -17.1367702635082 0.907338231994151 -112.012397505455 0.90733823199415 -112.012397505455 0.207216172077269 -17.2697248879279 
! Gamma         32.8115238927217 971.694254724052 33.4713983689946 975.350970549654 
! Port Impedance         50               0                50               0                
21                             0.197656089234423 -21.9318621553548 0.905815152458453 -117.496662668386 0.905815152458453 -117.496662668386 0.197433537715987 -22.0993137965618 
! Gamma         34.2536714151012 1020.06475929863 34.9390645133285 1023.89097543598 
! Port Impedance         50               0                50               0                
22                             0.186158864377531 -26.6337150570203 0.904539403598997 -122.99934458142 0.904539403598997 -122.99934458142 0.18591081184159 -26.8451545440828 
! Gamma         35.6910837698152 1068.42371926327 36.4018759297878 1072.41857636023 
! Port Impedance         50               0                50               0                
23                             0.17303145099263 -31.2093691323048 0.903442494241093 -128.523080818405 0.903442494241093 -128.523080818405 0.172751807531517 -31.4774999927009 
! Gamma         37.123214658805  1116.7726172532  37.8592470964266 1120.93530441475 
! Port Impedance         50               0                50               0                
24                             0.158398753321429 -35.6082641494981 0.902450176725531 -134.069630234937 0.902450176725531 -134.069630234937 0.158078919331869 -35.9504793287753 
! Gamma         38.5496652254397 1165.11288690611 39.3107466585161 1169.44264236682 
! Port Impedance         50               0                50               0                
25                             0.142408926146235 -39.7507287626853 0.901485009763839 -139.639812152824 0.901485009763837 -139.639812152824 0.142036516284029 -40.1914972174021 
! Gamma         39.9701642072675 1213.44590210233 40.7560770222366 1217.94201302883 
! Port Impedance         50               0                50               0                
26                             0.125239489412612 -43.5059361609903 0.90046915189753 -145.233475542638 0.900469151897529 -145.233475542638 0.124796115059368 -44.0808092924919 
! Gamma         41.3845493391917 1261.77297000161 42.195055148937  1266.43477154299 
! Port Impedance         50               0                50               0                
27                             0.107108889197082 -46.6461399955772 0.899327313263565 -150.849502172466 0.899327313263567 -150.849502172466 0.106566019644536 -47.4087113300474 
! Gamma         42.7927502413789 1310.09532708901 43.6275948466372 1314.92220090349 
! Port Impedance         50               0                50               0                
28                             0.0883027110628453 -48.7420226131437 0.897989755142164 -156.485846730067 0.897989755142162 -156.485846730067 0.0876132855083442 -49.7760983644988 
! Gamma         44.1947729543719 1358.41413764464 45.0536907073667 1363.40551001455 
! Port Impedance         50               0                50               0                
29                             0.0692440822591372 -48.8939066669848 0.896395192537488 -162.1396153077  0.896395192537489 -162.1396153077  0.0683239292092026 -50.3319268367912 
! Gamma         45.5906861637989 1406.73049402595 46.4734037692895 1411.88583371886 
! Port Impedance         50               0                50               0                
30                             0.0507193929344629 -44.9505871155248 0.894493431442781 -167.807181415977 0.894493431442781 -167.807181415977 0.0494038794554994 -46.9664335649916 
! Gamma         46.9806090844579 1455.04541837258 47.8868488730133 1460.36423429034 
! Port Impedance         50               0                50               0                
31                             0.0347358938648523 -31.2413564213451 0.892247565695974 -173.484336063795 0.892247565695974 -173.484336063795 0.0327134469303245 -33.610003512074 
! Gamma         48.3647009102291 1503.35986528737 49.2941836235523 1508.8417040483  
! Port Impedance         50               0                50               0                
32                             0.0271557582205285 1.17658069015705 0.889635572464954 -179.166465727898 0.889635572464953 -179.166465727898 0.0244350747996452 1.64727336209506 
! Gamma         49.7431517379091 1551.6747252484  50.6955988750085 1557.31916870361 
! Port Impedance         50               0                50               0                
33                             0.0341707733626031 34.0638185922811 0.886651181131159 175.151250398775 0.886651181131159 175.151250398775 0.0320070239927069 37.7039279605808 
! Gamma         51.1161748276183 1599.99082844559 52.0913105918316 1605.79749122352 
! Port Impedance         50               0                50               0                
34                             0.0496213863192586 48.2000875730443 0.883303944365869 169.473634295602 0.88330394436587 169.473634295602 0.0481434039921033 51.67954999458   
! Gamma         52.4840000700956 1648.30894886765 53.481552960265  1654.27747596246 
! Port Impedance         50               0                50               0                
35                             0.0674619618059791 52.3551993867688 0.879618505550786 163.805305424406 0.879618505550786 163.805305424406 0.0663873067587641 55.3208503042439 
! Gamma         53.8468685184608 1696.62980852816 54.8665726144459 1702.75987296238 
! Port Impedance         50               0                50               0                
36                             0.0856312041799209 52.3438804534042 0.875633123976047 158.150490551106 0.875633123976046 158.150490551106 0.0848050621656365 54.9393297824102 
! Gamma         55.2050278653625 1744.95408163873 56.2466238361509 1751.24538222731 
! Port Impedance         50               0                50               0                
37                             0.103344297984307 50.3729474192715 0.871397578598337 152.51285692055  0.871397578598336 152.51285692055  0.10268919794631 52.7235757898386 
! Gamma         56.5587287332014 1793.2823987327  57.6219646121964 1799.73465795061 
! Port Impedance         50               0                50               0                
38                             0.120196814277813 47.3624178317151 0.866970614364723 146.895376535438 0.866970614364724 146.895376535438 0.11967163751812 49.5516497280948 
! Gamma         57.9082216738114 1841.61535059239 58.9928534306337 1848.2283125717  
! Port Impedance         50               0                50               0                
39                             0.135929650364001 43.7504750184555 0.862417117286843 141.300226650762 0.862417117286843 141.300226650762 0.135511548792026 45.8340454864468 
! Gamma         59.2537547737394 1889.95349202481 60.3595467115831 1896.72692065889 
! Port Impedance         50               0                50               0                
40                             0.150355769048467 39.7696718109081 0.857805204681528 135.728728779161 0.857805204681528 135.728728779161 0.150031933846389 41.7865054348194 
! Gamma         60.5955717691514 1938.29734540205 61.7222967793026 1945.23102258178 
! Port Impedance         50               0                50               0                
41                             0.163332754796408 35.5541336601531 0.853203398138938 130.181325879113 0.853203398138938 130.181325879113 0.163096354905216 37.532847798943  
! Gamma         61.9339106019058 1986.64740395258 63.0813502878269 1993.74112794025 
! Port Impedance         50               0                50               0                
42                             0.174750559802038 31.1863303001185 0.848678014319565 124.657595202205 0.848678014319564 124.657595202205 0.174598584287957 33.1490825455712 
! Gamma         63.2690023321723 2035.00413486177 64.4369470401097 2042.25771874907 
! Port Impedance         50               0                50               0                
43                             0.184524943629218 26.7195791433109 0.844290869274092 119.156292706497 0.844290869274093 119.156292706497 0.184456987030871 28.684422111668  
! Gamma         64.6010703611079 2083.36798209741 65.7893191201578 2090.78125241623 
! Port Impedance         50               0                50               0                
44                             0.192593288384013 22.1898008950219 0.840097352050098 113.675424014573 0.840097352050098 113.675424014573 0.192610840032459 24.1721937226657 
! Gamma         65.9303299021759 2131.73936903047 67.138690296488  2139.31216444758 
! Port Impedance         50               0                50               0                
45                             0.198911547907192 17.6221217180502 0.83614488798353 108.212336578947 0.83614488798353 108.212336578947 0.199017571155424 19.6359563938466 
! Gamma         67.2569876550997 2180.1187008279  68.485275646773  2187.85087095118 
! Port Impedance         50               0                50               0                
46                             0.203451861921277 13.0348442608061 0.832471784583473 102.763827868262 0.832471784583474 102.763827868262 0.20365055387442 15.0931904918548 
! Gamma         68.5812416542538 2228.50636664599 69.8292813550355 2236.39777093188 
! Port Impedance         50               0                50               0                
47                             0.20620067047799 8.44201276088918 0.829106434710801 97.3262648707573 0.829106434710802 97.3262648707573 0.206497345417228 10.5577034447291 
! Gamma         69.9032812473493 2276.90274163186 71.1709046596555 2284.95324837568 
! Port Impedance         50               0                50               0                
48                             0.207157283803162 3.855210867466   0.826066842691206 91.8957108501819 0.826066842691205 91.8957108501819 0.207558352480746 6.0413469539367  
! Gamma         71.2232871821691 2325.30818873874 72.5103339185347 2333.51767415316 
! Port Impedance         50               0                50               0                
49                             0.20633290484827 -0.715047440347186 0.823360437818424 86.4680559450332 0.823360437818423 86.4680559450332 0.20684594000862 1.55538392734679 
! Gamma         72.5414317803108 2373.72306037903 73.8477487602821 2382.09140775358 
! Port Impedance         50               0                50               0                
50                             0.203750110993729 -5.25810644548601 0.820984144454723 81.0391487783022 0.820984144454723 81.0391487783023 0.204384003344618 -2.88827697914556 
! Gamma         73.8578791755619 2422.14769993882 75.1833203119457 2430.67479886125 
! Port Impedance         50               0                50               0                
51                             0.199442797760026 -9.76196588023285 0.818924686398563 75.6049266276463 0.818924686398563 75.6049266276463 0.200208020063509 -7.27580912256715 
! Gamma         75.1727856000262 2470.58244313322 76.5172114798486 2479.26818878479 
! Port Impedance         50               0                50               0                
52                             0.193456581768202 -14.2119231320958 0.817159113078843 70.161541908471  0.817159113078843 70.161541908471  0.19436559509735 -11.5899877120301 
! Gamma         76.486299713337  2519.02761925631 77.849577272005  2527.87191176134 
! Port Impedance         50               0                50               0                
53                             0.185849660343838 -18.5888598745564 0.815655544362836 64.7054826892618 0.815655544362836 64.7054826892618 0.186917519710933 -15.8082867848083 
! Gamma         77.7985629472035 2567.48355230375 79.1805651471212 2576.48629613613 
! Port Impedance         50               0                50               0                
54                             0.176694140783732 -22.8668774509347 0.814374137363065 59.2336847576649 0.814374137363064 59.2336847576649 0.177939393288602 -19.9002341970047 
! Gamma         79.1097098770474 2615.95056200091 80.5103153850658 2625.11166544087 
! Port Impedance         50               0                50               0                
55                             0.166077900029207 -27.0097923542276 0.813268281019555 53.743632417767  0.813268281019554 53.743632417767  0.167523927552344 -23.8235024194097 
! Gamma         80.4198685967028 2664.42896475005 81.8389614714089 2673.74833937537 
! Port Impedance         50               0                50               0                
56                             0.154107149239549 -30.9656223022585 0.812286021219416 48.2334448327723 0.812286021219417 48.2334448327723 0.155784207993965 -27.5178257728614 
! Gamma         81.7291611031741 2712.91907446697 83.1666304826819 2722.39663470209 
! Port Impedance         50               0                50               0                
57                             0.140910132651213 -34.6574239006111 0.81137171014714 42.7019444080394 0.81137171014714 42.7019444080394 0.142858517543479 -30.895084260515 
! Gamma         83.0377036726846 2761.42120338016 84.4934434766818 2771.05686605885 
! Port Impedance         50               0                50               0                
58                             0.126642962881174 -37.9672207190568 0.810467858549451 37.1487035843925 0.810467858549452 37.1487035843926 0.128918037066412 -33.8223983504607 
! Gamma         84.3456072446929 2809.93566273994 85.8195158796113 2819.72934672304 
! Port Impedance         50               0                50               0                
59                             0.111499933960574 -40.7061650601261 0.809517149693121 31.5740665666965 0.809517149693121 31.5740665666964 0.114180311309555 -36.0920249391863 
! Gamma         85.6529777853195 2858.46276349132 87.1449578638004 2868.414389294   
! Port Impedance         50               0                50               0                
60                             0.09573398613438 -42.5557055890226 0.808464551033886 25.9791430629905 0.808464551033887 25.9791430629905 0.0989350096867977 -37.3656117112792 
! Gamma         86.9599166558312 2907.00281687301 88.4698747219269 2917.11230633016 
! Port Impedance         50               0                50               0                
61                             0.0797019327700795 -42.9444947837596 0.80725943704175 20.3657720865359 0.80725943704175 20.3657720865359 0.083597218341324 -37.0687590465119 
! Gamma         88.2665209601587 2955.55613500195 89.7943672295003 2965.82341094433 
! Port Impedance         50               0                50               0                
62                             0.0639746143113956 -40.7812108147543 0.80585761793438 14.7364552944578 0.80585761793438 14.7364552944578 0.0688238486354867 -34.200361881422 
! Gamma         89.5728838885667 3004.12303139756 91.1185319937202 3014.54801735925 
! Port Impedance         50               0                50               0                
63                             0.0496232059754098 -33.9230312544204 0.804223158091721 9.09426109589787 0.804223158091721 9.09426109589787 0.0557640924608987 -27.0904264437642 
! Gamma         90.8790950469038 3052.70382148771 92.4424617947242 3063.28644141632 
! Port Impedance         50               0                50               0                
64                             0.0388895559937369 -18.8659876527061 0.802329867910277 3.44270272701221 0.802329867910278 3.4427027270122  0.0464619945813412 -13.7573561636464 
! Gamma         92.1852407726512 3101.29882307501 93.7662459129139 3112.03900107432 
! Port Impedance         50               0                50               0                
65                             0.0355730659243108 4.7974339355691  0.800162365664232 -2.21440456719531 0.800162365664232 -2.21440456719531 0.0436769124484029 4.9660624175497  
! Gamma         93.4914044406099 3149.90835679807 95.0899704428592 3160.80601686925 
! Port Impedance         50               0                50               0                
66                             0.0414184709432241 26.2966478919716 0.797716631455326 -7.87310042242835 0.797716631455327 -7.87310042242834 0.0484909494290261 22.4397060194862 
! Gamma         94.7976667570094 3198.53274655583 96.4137185972715 3209.58781234504 
! Port Impedance         50               0                50               0                
67                             0.0531783891283558 38.2913105738599 0.795000011205919 -13.529442297938 0.795000011205919 -13.529442297938 0.0587905175128591 33.6326115882569 
! Gamma         96.1041060408414 3247.17231992522 97.7375709953983 3258.38471449751 
! Port Impedance         50               0                50               0                
68                             0.067392285532945 43.3136803350582 0.792030670566986 -19.1796659286663 0.792030670566986 -19.1796659286663 0.0718515093693062 39.1882330755399 
! Gamma         97.4107984944488 3295.82740856822 99.0616059445379 3307.19705417206 
! Port Impedance         50               0                50               0                
69                             0.0822959191590854 44.5103061421747 0.788836541047037 -24.820334952269 0.788836541047037 -24.820334952269 0.0859495178947044 41.141876617327  
! Gamma         98.7178184628534 3344.49834862365 100.38589970557  3356.02516647054 
! Port Impedance         50               0                50               0                
70                             0.0970449255769362 43.6058148234185 0.785453837963314 -30.4484723081859 0.785453837963314 -30.4484723081859 0.100143072487801 40.929558716393  
! Gamma         100.025238683352 3393.18548110167 101.710526751331 3404.86939114135 
! Port Impedance         50               0                50               0                
71                             0.111177992451259 41.4786871377732 0.781925257300303 -36.0616675153287 0.781925257300302 -36.0616675153287 0.113891282932198 39.3880136160053 
! Gamma         101.333130526762 3441.88915227204 103.035560012517 3453.73007297223 
! Port Impedance         50               0                50               0                
72                             0.124404960666321 38.5983489461529 0.778297973398381 -41.6581558247549 0.778297973398381 -41.6581558247549 0.126852538728867 37.0003255365709 
! Gamma         102.641564226968 3490.6097140459  104.361071116151 3502.60756217547 
! Port Impedance         50               0                50               0                
73                             0.136524117348895 35.2325295022716 0.774621560997625 -47.2368672612854 0.774621560997625 -47.2368672612854 0.138792868683782 34.0555219277241 
! Gamma         103.950609105698 3539.34752436081 105.687130614199 3551.5022147724  
! Port Impedance         50               0                50               0                
74                             0.147387016437728 31.5434288823923 0.770945955026035 -52.7974454967642 0.770945955026035 -52.7974454967642 0.149543320445583 30.7343921534241 
! Gamma         105.260333788485 3588.10294758095 107.013808205152 3600.41439298939 
! Port Impedance         50               0                50               0                
75                             0.15688184329059 27.6345636297427 0.767319542710649 -58.3402381351416 0.767319542710649 -58.3402381351416 0.158978748067142 27.1550372120336 
! Gamma         106.570806411213 3636.87635488978 108.341172946781 3649.34446564192 
! Port Impedance         50               0                50               0                
76                             0.164924598690688 23.5750272348471 0.763787458897098 -63.8662612349223 0.7637874588971  -63.8662612349224 0.167006320912773 23.3977944859129 
! Gamma         107.882094828609 3685.66812469141 109.669293464919 3698.29280854724 
! Port Impedance         50               0                50               0                
77                             0.171453850598301 19.4128344035402 0.76039013068275 -69.3771416970708 0.76039013068275 -69.3771416970707 0.173558709113547 19.5194759147235 
! Gamma         109.194266808286 3734.47864303245 110.998238155364 3747.25980492441 
! Port Impedance         50               0                50               0                
78                             0.176427267056075 15.1826979094062 0.757162094747295 -74.875041532096 0.757162094747294 -74.8750415320959 0.178589687999368 15.5618964658848 
! Gamma         110.507390227618 3783.30830402156 112.328075380036 3796.24584581988 
! Port Impedance         50               0                50               0                
79                             0.179819150977915 10.9108317750818 0.754131092274051 -80.3625680613322 0.754131092274051 -80.3625680613322 0.182071120031712 11.5572526119935 
! Gamma         111.821533262947 3832.15751027327 113.658873661178 3845.251330536   
! Port Impedance         50               0                50               0                
80                             0.181618632071043 6.61811199028001 0.751317433188617 -85.8426739046965 0.751317433188617 -85.8426739046965 0.183990825148957 7.53172110712308 
! Gamma         113.136764580127 3881.026673362   114.99070187081  3894.27666707724 
! Port Impedance         50               0                50               0                
81                             0.181828364219283 2.32232020585527 0.748733613724718 -91.3185502611431 0.748733613724719 -91.3185502611431 0.184351109125381 3.50804903738675 
! Gamma         114.453153517614 3929.9162142899  116.323629417613 3943.32227261564 
! Port Impedance         50               0                50               0                
82                             0.180463662392704 -1.96010379972994 0.746384168448818 -96.7935166044036 0.746384168448818 -96.7935166044037 0.183167843182378 -0.49240089864697 
! Gamma         115.770770274863 3978.82656397917 117.657726433762 3992.38857396405 
! Port Impedance         50               0                50               0                
83                             0.177552050278007 -6.21252152162178 0.744265738706976 -102.270909565177 0.744265738706977 -102.270909565177 0.180470049094586 -4.44784032570504 
! Gamma         117.08968609507  4027.75816378504 118.993063958646 4041.4760080802  
! Port Impedance         50               0                50               0                