! Touchstone file exported from HFSS 2024.2.0
!        File:           C:/Users/vaintrug/Documents/Ansoft_Workspace/Comparaison_Calculs_HFSS/1_VarPort.aedt
!        Generated:      03:22:18 PM Jan 21, 2025
!        Design:         1_NoDeembed_FacePortFree
!        Project:        1_VarPort
!        Setup:          Setup1
!        Solution:       Sweep
!
! Variables:
!        $Lenght = 2000um
!        $PortSize = 150um
!        Gap = 30um
!        Th = 2um
!        X_centralStrip = 20um
!        X_masse = 200um
!        Y_Sub = 2mm
!        Z_Box = 400um
!        Z_Sub = 200um
!
# GHz S MA R 50.000000
! Terminal data exported
! Port[1] = 1
! Port[2] = 2
1                              0.0271209323657438 60.823530311653  0.985447920154699 -5.89538075654415 0.985447920154698 -5.89538075654415 0.0271227253759306 60.8257243680761 
! Gamma         5.97823676969807 50.2597950101377 6.03118962802216 50.4378410243808 
! Port Impedance         50               0                50               0                
2                              0.0482227091714951 66.6232176968848 0.981973327115949 -11.6593696647162 0.98197332711595 -11.6593696647162 0.0482334651658265 66.6146538824597 
! Gamma         7.84842202769227 99.025652885646  7.96929717545557 99.3592079946457 
! Port Impedance         50               0                50               0                
3                              0.069595659661699 65.6618269491863 0.978438988696539 -17.4251059990337 0.978438988696539 -17.4251059990337 0.0696137577848909 65.6407562453751 
! Gamma         9.3175049366128  147.811047133581 9.48656211701557 148.251342891545 
! Port Impedance         50               0                50               0                
4                              0.0904579786597253 62.4667114885227 0.974500619469546 -23.1820506295083 0.974500619469547 -23.1820506295083 0.0904818048379683 62.434539384703  
! Gamma         10.683151456694  196.664437828977 10.87825010567   197.20751357043  
! Port Impedance         50               0                50               0                
5                              0.110373960000422 58.3070976450207 0.970144365783826 -28.9212614698295 0.970144365783826 -28.9212614698295 0.110402581913061 58.2647785124091 
! Gamma         12.0313243342229 245.552425062455 12.2434473105451 246.20174747222  
! Port Impedance         50               0                50               0                
6                              0.129050656369986 53.6667137035558 0.965433875651851 -34.6366366505145 0.96543387565185 -34.6366366505144 0.129083528276141 53.6148773088168 
! Gamma         13.3891676300066 294.451683816834 13.6149133947792 295.210228986823 
! Port Impedance         50               0                50               0                
7                              0.146267695498906 48.7679847119524 0.960460373841662 -40.3240973505874 0.960460373841662 -40.3240973505874 0.146304525257526 48.7071261820553 
! Gamma         14.7656820256646 343.348083928261 15.0038514571728 344.217721050719 
! Port Impedance         50               0                50               0                
8                              0.161853348452231 43.72700009293   0.955325954855585 -45.9812394081976 0.955325954855585 -45.9812394081976 0.161894047364849 43.6575821264818 
! Gamma         16.1631502655706 392.232821716115 16.4134484209769 393.214598466262 
! Port Impedance         50               0                50               0                
9                              0.175674314054758 38.609857138383  0.950134760633013 -51.6071545787583 0.950134760633013 -51.6071545787583 0.175718978145905 38.5323678767869 
! Gamma         17.5809967599354 441.100241943672 17.8435114556213 442.19466090115  
! Port Impedance         50               0                50               0                
10                             0.187629780162524 33.4564542627554 0.944987008567248 -57.2022861365977 0.944987008567248 -57.2022861365977 0.187678685046733 33.3714468365571 
! Gamma         19.0173299732603 489.946697106876 19.2923051188817 491.153902446307 
! Port Impedance         50               0                50               0                
11                             0.197646894380301 28.2917801455726 0.939974620979647 -62.7682760783232 0.939974620979647 -62.7682760783232 0.197700498176708 28.1999060427114 
! Gamma         20.4696549149779 538.769919290499 20.7573848455616 540.089816804989 
! Port Impedance         50               0                50               0                
12                             0.205676804874527 23.1318203034605 0.935178059575145 -68.3077952834591 0.935178059575144 -68.3077952834591 0.205735757853182 23.0338629031186 
! Gamma         21.9352442749345 587.568643831866 22.2360220058871 589.000979233497 
! Port Impedance         50               0                50               0                
13                             0.211691103305158 17.9869346565323 0.93066416505215 -73.8243598477938 0.93066416505215 -73.8243598477938 0.211756264428255 17.8838469058686 
! Gamma         23.4113496832963 636.342362174323 23.7254410437667 637.886773671566 
! Port Impedance         50               0                50               0                
14                             0.215678714672977 12.863964845701  0.926484840293253 -79.3221401008008 0.926484840293252 -79.3221401008008 0.215751175832138 12.7569146038955 
! Gamma         24.8953282442883 685.091145292983 25.2229592828289 686.747199981766 
! Port Impedance         50               0                50               0                
15                             0.217643323546687 7.76767513709532 0.922676423767422 -84.8057687031487 0.922676423767422 -84.8057687031487 0.217724442711663 7.65810194610606 
! Gamma         26.3847190119624 733.815508673078 26.7260705909313 735.582728618742 
! Port Impedance         50               0                50               0                
16                             0.217601409633334 2.70184247505282 0.919259611605512 -90.2801528446356 0.919259611605512 -90.2801528446356 0.217692854685208 2.59153069521498 
! Gamma         27.8772871297324 782.516304554367 28.2324936038684 784.394185779288 
! Port Impedance         50               0                50               0                
17                             0.215580929444246 -2.32981960717538 0.916239808377777 -95.7502940547976 0.916239808377777 -95.7502940547976 0.215684735298571 -2.43864460029668 
! Gamma         29.3710459113156 831.194633788782 29.7401961789374 833.182660395106 
! Port Impedance         50               0                50               0                
18                             0.211620644146582 -7.3227745220034 0.913607814801973 -101.221117851667 0.913607814801974 -101.221117851667 0.211739287204186 -7.42731726652474 
! Gamma         30.8642634483338 879.851773022144 31.2474033915018 881.949427845931 
! Port Impedance         50               0                50               0                
19                             0.205770062365594 -12.2706979441905 0.911340791065022 -106.697314675458 0.911340791065022 -106.697314675458 0.205906558632828 -12.3674164219741 
! Gamma         32.3554583096686 928.489114738779 32.7525940441129 930.695887349907 
! Port Impedance         50               0                50               0                
20                             0.198089944126659 -17.1642983048457 0.909403462603566 -112.18319325546 0.909403462603565 -112.18319325546 0.198247981276413 -17.2486576949016 
! Gamma         33.8433877826234 977.108118256505 34.2544893260565 979.423510980179 
! Port Impedance         50               0                50               0                
21                             0.188653301254957 -21.9897229129134 0.907749557600328 -117.682547696675 0.907749557600329 -117.682547696675 0.188837421564763 -22.0558443940355 
! Gamma         35.3270312104794 1025.71027027464 35.7520363562328 1028.13380268672 
! Port Impedance         50               0                50               0                
22                             0.177546836195109 -26.7262171215257 0.906323479709932 -123.198540034329 0.906323479709932 -123.198540034329 0.177762699131043 -26.7663646508199 
! Gamma         36.8055704444201 1074.29705372588 37.2443886503706 1076.82826586446 
! Port Impedance         50               0                50               0                
23                             0.16487280117367 -31.3424324981303 0.905062223989737 -128.733600629947 0.905062223989736 -128.733600629947 0.165127576070716 -31.3462422411389 
! Gamma         38.2783688923262 1122.86992369254 38.7308850829803 1125.50837835127 
! Port Impedance         50               0                50               0                
24                             0.150751369490979 -35.790209468147 0.903897538056322 -134.289349417878 0.903897538056322 -134.289349417878 0.151054350431188 -35.7434978184358 
! Gamma         39.7449502996947 1171.43028948722 40.211028508522  1174.17557364958 
! Port Impedance         50               0                50               0                
25                             0.135323881938355 -39.9933915798841 0.90275831443867 -139.866541486226 0.902758314438669 -139.866541486226 0.135687501377984 -39.8762513081978 
! Gamma         41.2049780416227 1219.97950173069 41.6844648439056 1222.83122742401 
! Port Impedance         50               0                50               0                
26                             0.11875801006182 -43.8261919705162 0.901573175463506 -145.465040600295 0.901573175463506 -145.465040600295 0.11919960968228 -43.6098553018858 
! Gamma         42.6582355127592 1268.51884366554 43.1509632024114 1271.4766482441  
! Port Impedance         50               0                50               0                
27                             0.101257701277072 -47.0676701481908 0.900273181742269 -151.08382397347 0.900273181742269 -151.08382397347 0.101802838252093 -46.7092374497443 
! Gamma         44.1046079213022 1317.04952588662 44.6103974408168 1320.11307193635 
! Port Impedance         50               0                50               0                
28                             0.0830862636713283 -49.2955595365173 0.898794563511564 -156.72102067354 0.898794563511565 -156.72102067354 0.0837753659665145 -48.7294316612546 
! Gamma         45.5440657271853 1365.57268373197 46.0627293140121 1368.74165864782 
! Port Impedance         50               0                50               0                
29                             0.0646302410164949 -49.604981046643 0.8970813461734  -162.373984622609 0.8970813461734  -162.373984622609 0.0655330473721473 -48.7330799236448 
! Gamma         46.9766497801175 1414.08937684953 47.5079933404091 1417.36349213363 
! Port Impedance         50               0                50               0                
30                             0.0466137255679818 -45.7452612055038 0.895087722819751 -168.039401191455 0.895087722819752 -168.039401191455 0.0478608423437108 -44.467425337486 
! Gamma         48.4024581521487 1462.60059031984 48.9462833774331 1465.97958072192 
! Port Impedance         50               0                50               0                
31                             0.0309826576113448 -31.3261693569399 0.892780022368105 -173.713424118221 0.892780022368105 -173.713424118221 0.0327928888696594 -30.0223152237533 
! Gamma         49.8216346216077 1511.10723699754 50.3777408457856 1514.59085950112 
! Port Impedance         50               0                50               0                
32                             0.0239799018446004 4.61446926386238 0.890138135308817 -179.391837176838 0.890138135308816 -179.391837176838 0.0261721775059553 3.08780555257557 
! Gamma         51.234358707155  1559.61016069426 51.8025445192178 1563.19819338525 
! Port Impedance         50               0                50               0                
33                             0.031946980997347 38.7916595391769 0.887156290346993 174.929767063922 0.887156290346993 174.929767063922 0.0334889722735075 35.0043931605213 
! Gamma         52.6408371006592 1608.11013989867 53.2209017397552 1611.80238080927 
! Port Impedance         50               0                50               0                
34                             0.0475914529626169 51.8842271343121 0.883843121606133 169.255800565293 0.883843121606134 169.255800565293 0.0485066409547102 48.4276566799823 
! Gamma         54.0412964128479 1656.60789188343 54.6330409528581 1660.40415777824 
! Port Impedance         50               0                50               0                
35                             0.0651473559381491 55.2833883306777 0.880221021746012 163.590495152467 0.880221021746011 163.590495152467 0.0656884087651263 52.3063856890014 
! Gamma         55.4359770614094 1705.1040769397  56.0392054019776 1709.00420210658 
! Port Impedance         50               0                50               0                
36                             0.0828608041049859 54.8315935367717 0.876324833650213 157.937729619984 0.876324833650212 157.937729619984 0.0831572174931812 52.1751729197001 
! Gamma         56.8251281667855 1753.59930267585 57.4396478594753 1757.60313772367 
! Port Impedance         50               0                50               0                
37                             0.10007119484477 52.5969800294101 0.872199984169501 152.300877331068 0.872199984169501 152.300877331068 0.100186478212724 50.1419642990928 
! Gamma         58.2090033612044 1802.09412824751 58.8346262766776 1806.20153894352 
! Port Impedance         50               0                50               0                
38                             0.11642898825208 49.4233681518332 0.867900200991421 146.682681269718 0.867900200991422 146.682681269718 0.116396310078456 47.0929040598055 
! Gamma         59.5878573456834 1850.58906847639 60.2244002135559 1854.79993458392 
! Port Impedance         50               0                50               0                
39                             0.131703252358675 45.7097716057927 0.863484973863906 141.08516125377  0.863484973863907 141.08516125377  0.131540662929248 43.4528668760655 
! Gamma         60.96194313781   1899.08459774764 61.6092279502009 1903.39881195893 
! Port Impedance         50               0                50               0                
40                             0.145723023238148 41.66761483503   0.859016923169962 135.509555603105 0.859016923169963 135.509555603105 0.145440301263425 39.4484855307093 
! Gamma         62.3315098635546 1947.58115372823 62.9893641933983 1951.99862061826 
! Port Impedance         50               0                50               0                
41                             0.158355563268738 37.419020217972  0.854559224355032 129.956297263742 0.854559224355031 129.956297263742 0.15795756088193 35.2109981957853 
! Gamma         63.696801057748  1996.07914083579 64.3650582671388 2000.59977588137 
! Port Impedance         50               0                50               0                
42                             0.169496686866026 33.0393923466883 0.850173210287593 124.425022444206 0.850173210287593 124.425022444206 0.168985081677415 30.8213827171035 
! Gamma         65.0580533456638 2044.57893348061 65.7365527298071 2049.20266213188 
! Port Impedance         50               0                50               0                
43                             0.179065556213646 28.5778472038332 0.845916240704408 118.914608376679 0.845916240704408 118.914608376679 0.178439813541266 26.3321697851716 
! Gamma         66.4154954843543 2093.08087902814 67.1040823381422 2097.80763584998 
! Port Impedance         50               0                50               0                
44                             0.187001317054866 24.0678810557651 0.84183989384625 113.423235919315 0.84183989384625 113.423235919315 0.186259227302211 21.7788761046344 
! Gamma         67.7693476765872 2141.58530056671 68.4678733122857 2146.41502843252 
! Port Impedance         50               0                50               0                
45                             0.19326060419325 19.5333765104463 0.837988504572716 107.948472343501 0.837988504572716 107.948472343501 0.192398571970048 17.1864402574566 
! Gamma         69.1198211212213 2190.09249940649 69.8281428320916 2195.02514874703 
! Port Impedance         50               0                50               0                
46                             0.197815561830062 14.992237424612  0.834398048692433 102.487369677818 0.834398048692435 102.487369677818 0.196828735516153 12.5730984991768 
! Gamma         70.4671177556102 2238.602757374   71.1850987454594 2243.63828549283 
! Port Impedance         50               0                50               0                
47                             0.200652265826785 10.4587657101334 0.831095356308746 97.0365743296393 0.831095356308746 97.0365743296393 0.199534551518829 7.95288845887266 
! Gamma         71.8114301512542 2287.11633890009 72.5389394268862 2292.25470932392 
! Port Impedance         50               0                50               0                
48                             0.201769529290782 5.94536230203324 0.828097627833463 91.5924441901927 0.828097627833463 91.5924441901927 0.200513507602099 3.33740150390483 
! Gamma         73.1529415340182 2335.63349288943 73.889853775166  2340.87467479208 
! Port Impedance         50               0                50               0                
49                             0.201178105601914 1.46388443352861 0.825412223963712 86.1511699621473 0.825412223963713 86.1511699621473 0.199774852719651 -1.26286556361771 
! Gamma         74.4918259028431 2384.15445443721 75.2380213116026 2389.49842209937 
! Port Impedance         50               0                50               0                
50                             0.198900309827765 -2.9731261785696 0.823036703841112 80.7088979240644 0.823036703841112 80.7088979240644 0.197339109881577 -5.83733854310646 
! Gamma         75.8282482255554 2432.67944636127 76.5836123582801 2438.12617867901 
! Port Impedance         50               0                50               0                
51                             0.194970077519805 -7.35117666110139 0.82095909192707 75.2618516739389 0.82095909192707 75.2618516739389 0.193237997939137 -10.3742084253707 
! Gamma         77.1623646958705 2481.20868058354 77.9267882820205 2486.75816061595 
! Port Impedance         50               0                50               0                
52                             0.189433479077723 -11.6523507781228 0.819158361852377 69.8064505687424 0.819158361852378 69.8064505687424 0.187514760595841 -14.8591317807417 
! Gamma         78.4943230285129 2529.74235935993 79.2677017844141 2535.39457392906 
! Port Impedance         50               0                50               0                
53                             0.182349716456847 -15.8534219030463 0.817605132775442 64.3394225721832 0.817605132775442 64.3394225721832 0.180224900200279 -19.2735982862236 
! Gamma         79.8242627886027 2578.28067640534 80.6064972253897 2584.03561571765 
! Port Impedance         50               0                50               0                
54                             0.173792658501809 -19.9232436451218 0.816262578885562 58.8579090596787 0.816262578885562 58.8579090596787 0.171437326846419 -23.5926859551336 
! Gamma         81.1523157452851 2626.82381787928 81.9433109736364 2632.6814751939  
! Port Impedance         50               0                50               0                
55                             0.163853041518571 -23.8189208957693 0.81508755419993 53.3595588784139 0.81508755419993 53.3595588784139 0.161235974595774 -27.7817438858087 
! Gamma         82.4786062338882 2675.37196327543 83.2782717660145 2681.33233459398 
! Port Impedance         50               0                50               0                
56                             0.152641612492378 -27.4799077800867 0.814031931679506 47.8426086656045 0.814031931679506 47.8426086656045 0.149722036096957 -31.7911855298797 
! Gamma         83.8032515264333 2723.92528621067 84.6115010807731 2729.98837000802 
! Port Impedance         50               0                50               0                
57                             0.140293806921349 -30.8185016551041 0.813044147376022 42.30594620924   0.813044147376023 42.30594620924   0.137017190024121 -35.5478547619846 
! Gamma         85.1263622018317 2772.48395513372 85.9431135111093 2778.64975210662 
! Port Impedance         50               0                50               0                
58                             0.126977214495944 -33.7038873141524 0.81207092699806 36.7491535683899 0.81207092699806 36.7491535683899 0.123268696330425 -38.9399071286465 
! Gamma         86.4480425124573 2821.04813394681 87.2732171346678 2827.31664678833 
! Port Impedance         50               0                50               0                
59                             0.112904515521003 -35.9342971237702 0.811059154842484 31.1725268642277 0.811059154842485 31.1725268642277 0.108658402899346 -41.7887725336332 
! Gamma         87.7683907481939 2869.61798256795 88.6019138786855 2875.98921577158 
! Port Impedance         50               0                50               0                
60                             0.0983577673612856 -37.1868582434126 0.809957825348905 25.5770701863032 0.809957825348905 25.5770701863032 0.0934206135846568 -43.7938551247631 
! Gamma         89.0874995831419 2918.19365741871 89.9292998767553 2924.66761709881 
! Port Impedance         50               0                50               0                
61                             0.0837372091509994 -36.9263489142749 0.808719998188735 19.9644619614306 0.808719998188735 19.9644619614306 0.0778815843050425 -44.4163636113265 
! Gamma         90.4054564193289 2966.77531186602 91.2554658154695 2973.352005592   
! Port Impedance         50               0                50               0                
62                             0.0696635725151479 -34.2497158718704 0.80730466198897 14.3369934194071 0.80730466198897 14.3369934194071 0.0625560496728025 -42.6234806421385 
! Gamma         91.7223437113702 3015.36309661536 92.5804972658568 3022.04253326546 
! Port Impedance         50               0                50               0                
63                             0.0571862158709927 -27.7115713322253 0.805678402770884 8.69748035447626 0.805678402770884 8.69748035447626 0.048402017685361 -36.3520987387968 
! Gamma         93.0382392818486 3063.95716003512 93.904475004871  3070.73934967501 
! Port Impedance         50               0                50               0                
64                             0.048095629044514 -15.6509191822486 0.803816773655045 3.04915112786413 0.803816773655045 3.04915112786413 0.0374543116719564 -21.9923806852703 
! Gamma         94.3532166192497 3112.55764847081 95.2274753206975 3119.44260223376 
! Port Impedance         50               0                50               0                
65                             0.0447860299916885 1.40725821387884 0.801705273925385 -2.60448443543733 0.801705273925385 -2.60448443543733 0.0334153181761915 1.81576834606892 
! Gamma         95.6673451650226 3161.16470651085 96.5495703042177 3168.15243649826 
! Port Impedance         50               0                50               0                
66                             0.0484302202262027 18.1315667262967 0.799339867992054 -8.2597791061424 0.799339867992054 -8.2597791061424 0.0384765055903122 24.5383590052836 
! Gamma         96.9806905804073 3209.77847721412 97.8708281266756 3216.8689964023  
! Port Impedance         50               0                50               0                
67                             0.0574756771749216 29.6009943900898 0.796727006172803 -13.91309806856  0.796727006172802 -13.91309806856  0.0496433295527595 37.4168995155315 
! Gamma         98.2933150066327 3258.39910231727 99.1913133013633 3265.59242447993 
! Port Impedance         50               0                50               0                
68                             0.0694713552558701 35.703976175641  0.793883145856769 -19.5609668021361 0.793883145856769 -19.560966802136 0.0633565536654516 42.838403557512  
! Gamma         99.6052773016172 3307.02672241623 100.511086929786 3314.32286205209 
! Port Impedance         50               0                50               0                
69                             0.0826970776823517 38.1412328520034 0.790833808868163 -25.2002094964824 0.790833808868163 -25.2002094964824 0.0778004762785588 44.2102650018475 
! Gamma         100.916633268572 3355.66147711799 101.830206938147 3363.06044939413 
! Port Impedance         50               0                50               0                
70                             0.0961671331597164 38.2999172593635 0.787612243888782 -30.8280712548253 0.787612243888782 -30.8280712548253 0.0921246219744855 43.3895988222768 
! Gamma         102.227435871086 3404.30350518108 103.148728295388 3411.8053258685  
! Port Impedance         50               0                50               0                
71                             0.109307011179434 37.036657627367  0.78425778761693 -36.4423186350438 0.78425778761693 -36.4423186350438 0.105872040081234 41.3079168938037 
! Gamma         103.537735431057 3452.95294463342 104.466703218866 3460.55763006987 
! Port Impedance         50               0                50               0                
72                             0.1217542065831  34.8598485031252 0.78081403240843 -42.0413147202563 0.78081403240843 -42.0413147202563 0.118757445088282 38.4565653267212 
! Gamma         104.847579817322 3501.60993288142 105.784181369958 3509.31749991723 
! Port Impedance         50               0                50               0                
73                             0.13326161596894 32.0780234078201 0.777326910819195 -47.6240666928531 0.777326910819195 -47.6240666928531 0.130582450558644 35.1131277768189 
! Gamma         106.157014622386 3550.27460678695 107.101210033357 3558.08507276215 
! Port Impedance         50               0                50               0                
74                             0.143651296218475 28.8857361889207 0.773842799852196 -53.1902455978211 0.773842799852195 -53.1902455978211 0.141200195133061 31.4447220053551 
! Gamma         107.466083324465 3598.94710275536 108.417834287752 3606.86048545871 
! Port Impedance         50               0                50               0                
75                             0.152791207769467 25.4107609633517 0.770406732282216 -58.7401794737897 0.770406732282216 -58.7401794737897 0.150498922191699 27.5576691635733 
! Gamma         108.774827440948 3647.62755680085 109.734097163948 3655.64387444553 
! Port Impedance         50               0                50               0                
76                             0.160582654503194 21.7404142677595 0.767060782373211 -64.2748221940303 0.767060782373211 -64.2748221940304 0.158393451510177 23.5229614838822 
! Gamma         110.083286672574 3696.31610459549 111.050039791797 3704.43537579827 
! Port Impedance         50               0                50               0                
77                             0.166952943992549 17.9367608575797 0.763842671853963 -69.7957011371935 0.763842671853963 -69.7957011371935 0.164820214227956 19.390168260719  
! Gamma         111.391499034535 3745.01288152723 112.365701539604 3753.23512528588 
! Port Impedance         50               0                50               0                
78                             0.171850764277241 14.045787725078  0.760784621976167 -75.3048472314533 0.760784621976167 -75.3048472314533 0.169734048273884 15.1955034982646 
! Gamma         112.699500980684 3793.71802273747 113.681120140258 3802.04325841262 
! Port Impedance         50               0                50               0                
79                             0.17524310121904 10.1032218052192 0.757912460810815 -80.804711030054 0.757912460810815 -80.804711030054 0.173105973402616 10.9668053869141 
! Gamma         114.007327519318 3842.43166315361 114.99633181184  3850.85991045613 
! Port Impedance         50               0                50               0                
80                             0.177113134850055 6.13844549503149 0.755244982751409 -86.2980683620343 0.755244982751409 -86.2980683620343 0.17492160394427 6.726831002052   
! Gamma         115.315012317809 3891.15393752332 116.311371368001 3899.68521650317 
! Port Impedance         50               0                50               0                
81                             0.177458846946612 2.17733835447186 0.752793549691736 -91.7879188603074 0.752793549691736 -91.7879188603074 0.175180053490174 2.49563057582043 
! Gamma         116.622587803676 3939.88498043524 117.626272321132 3948.51931146789 
! Port Impedance         50               0                50               0                
82                             0.176292217046513 -1.75544948576444 0.750561920109337 -97.2773803733157 0.750561920109337 -97.2773803733157 0.173893275025889 -1.70754568587855 
! Gamma         117.93008525521  3988.62492633512 118.94106697716  3997.36233012016 
! Port Impedance         50               0                50               0                
83                             0.173638960147106 -5.63444785692915 0.748546292346219 -102.76958200371 0.748546292346219 -102.76958200371 0.171085822256168 -5.86250254221486 
! Gamma         119.237534887051 4037.37390955328 120.255786525034 4046.21440710238 
! Port Impedance         50               0                50               0                