! Touchstone file exported from HFSS 2024.2.0
!        File:           C:/Users/vaintrug/Documents/Ansoft_Workspace/Comparaison_Calculs_HFSS/1_VarPort.aedt
!        Generated:      03:22:19 PM Jan 21, 2025
!        Design:         1_NoDeembed_FacePortFree
!        Project:        1_VarPort
!        Setup:          Setup1
!        Solution:       Sweep
!
! Variables:
!        $Lenght = 2000um
!        $PortSize = 320um
!        Gap = 30um
!        Th = 2um
!        X_centralStrip = 20um
!        X_masse = 200um
!        Y_Sub = 2mm
!        Z_Box = 400um
!        Z_Sub = 200um
!
# GHz S MA R 50.000000
! Terminal data exported
! Port[1] = 1
! Port[2] = 2
1                              0.0277055118162203 61.1061840379777 0.985364800478586 -5.90187169792352 0.985364800478587 -5.90187169792352 0.0276987919190975 61.1526436895536 
! Gamma         5.93228151597829 49.862987889628  5.86087502264381 49.8142291377036 
! Port Impedance         50               0                50               0                
2                              0.0492713469894135 66.5918145789392 0.981783893815121 -11.6632800133421 0.981783893815122 -11.6632800133421 0.0492583963143003 66.7006155391719 
! Gamma         7.68117021274017 98.3298220437625 7.58135082524568 98.3309741375061 
! Port Impedance         50               0                50               0                
3                              0.07105427370282 65.5268671793523 0.978180016576251 -17.4256100702677 0.978180016576251 -17.4256100702677 0.0710403216304867 65.697515118633  
! Gamma         9.0747830965067  146.866260122779 8.97305592352539 146.896062648748 
! Port Impedance         50               0                50               0                
4                              0.0923053928716581 62.2748249729637 0.974171914055224 -23.1789826841797 0.974171914055224 -23.1789826841797 0.0922956761361537 62.5069938848217 
! Gamma         10.3921638386697 195.475261087398 10.2884699672709 195.52593194701  
! Port Impedance         50               0                50               0                
5                              0.112582917058599 58.0723786256342 0.969737991858922 -28.91405501077  0.969737991858923 -28.9140550107699 0.112582326826665 58.366511305854  
! Gamma         11.7043150474563 244.116243172082 11.5972087608867 244.185825211332 
! Port Impedance         50               0                50               0                
6                              0.131586955059808 53.3950256748031 0.964942661282695 -34.6244345755009 0.964942661282695 -34.6244345755009 0.131600045339968 53.7521479307733 
! Gamma         13.031453296403  292.765810835041 12.9198277083817 292.853985626579 
! Port Impedance         50               0                50               0                
7                              0.149092127517311 48.4623750048845 0.959880338137559 -40.3058797412131 0.95988033813756 -40.3058797412131 0.149123148988169 48.8839930595899 
! Gamma         14.3793697689645 341.410846058163 14.2623923134832 341.517848346965 
! Port Impedance         50               0                50               0                
8                              0.16492342446794 43.3892512774475 0.954656981174606 -45.9559196667868 0.954656981174606 -45.9559196667868 0.164976363677416 43.8773192346981 
! Gamma         15.7488003098695 390.043522724764 15.6258140572134 390.169823053783 
! Port Impedance         50               0                50               0                
9                              0.178945628853774 38.2410108513589 0.949380588186357 -51.5736545568001 0.949380588186357 -51.5736545568001 0.179024253358617 38.7979385415883 
! Gamma         17.1384062403416 438.658965758389 17.0088824233635 438.80515615241  
! Port Impedance         50               0                50               0                
10                             0.19105706516689 33.0569988963045 0.944154885006347 -57.1595964327034 0.944154885006347 -57.1595964327034 0.191164975047532 33.6856866720717 
! Gamma         18.5459275795981 487.254129994768 18.4094442880674 487.420870588996 
! Port Impedance         50               0                50               0                
11                             0.201184798610511 27.8617104895662 0.939074768051648 -62.7155039870315 0.939074768051648 -62.7155039870315 0.20132548434792 28.5656067351264 
! Gamma         19.9687124283068 535.827214032747 19.8249432929759 536.015201352367 
! Port Impedance         50               0                50               0                
12                             0.209280439544211 22.6706423690638 0.934223040566333 -68.2442015132214 0.934223040566334 -68.2442015132214 0.209457346579388 23.4538242730507 
! Gamma         21.4039960155659 584.377318600344 21.2527016383289 584.587263578234 
! Port Impedance         50               0                50               0                
13                             0.215316387304237 17.4936438544711 0.929668212965221 -73.7493848149091 0.929668212965222 -73.7493848149091 0.215532988520932 18.360925265475  
! Gamma         22.849062230316  632.904224173259 22.6900820179604 633.136835978831 
! Port Impedance         50               0                50               0                
14                             0.219282561863734 12.3370083012341 0.925463186449378 -79.2354206303474 0.925463186449379 -79.2354206303474 0.219542440624289 13.2940813944259 
! Gamma         24.3013415220987 681.408231667193 24.134585160059  681.664205426696 
! Port Impedance         50               0                50               0                
15                             0.221183714987573 7.20490086477564 0.92164465206796 -84.7071460100291 0.92164465206796 -84.7071460100291 0.221490663279147 8.25852201575383 
! Gamma         25.7584697737617 729.890039726902 25.5839084160974 730.170047642892 
! Port Impedance         50               0                50               0                
16                             0.221037393169914 2.10043382286233 0.918233052951362 -90.1696726779794 0.918233052951362 -90.1696726779794 0.221395532000699 3.25866877036686 
! Gamma         27.2183210941505 778.35064614169  27.035978487972  778.655331160429 
! Port Impedance         50               0                50               0                
17                             0.218872585888027 -2.97342928907589 0.915232982452151 -95.6281998261596 0.915232982452151 -95.6281998261596 0.219286518812386 -1.70087865374589 
! Gamma         28.6790222748175 826.791266729245 28.488966138914  827.121238570345 
! Port Impedance         50               0                50               0                
18                             0.214729054052579 -8.01301536530724 0.912633922329811 -101.087837458956 0.912633922329811 -101.087837458956 0.215204070218973 -6.61436949176369 
! Gamma         30.1389541554062 875.213268336446 29.9412880709602 875.569101234433 
! Port Impedance         50               0                50               0                
19                             0.208657299950134 -13.0130181025945 0.910411258444571 -106.55344162798 0.910411258444571 -106.55344162798 0.209199651694479 -11.4738134227068 
! Gamma         31.596743804353  923.618113587823 31.3915997428563 924.000345602194 
! Port Impedance         50               0                50               0                
20                             0.200719115075801 -17.9653790494331 0.908527541850429 -112.029462638256 0.90852754185043 -112.029462638256 0.201336409123027 -16.2676189952666 
! Gamma         33.0512503642932 972.007315996349 32.8387820116709 972.416449440786 
! Port Impedance         50               0                50               0                
21                             0.190988628153601 -22.8577839897161 0.906933987117077 -117.519807481057 0.906933987117077 -117.519807481057 0.191690393202363 -20.9787237804599 
! Gamma         34.5015469068489 1020.38240398146 34.2819238203393 1020.8189066921  
! Port Impedance         50               0                50               0                
22                             0.179553776774212 -27.6714583217596 0.905572214787305 -123.027718309586 0.905572214787305 -123.027718309586 0.180352312067937 -25.5818209886923 
! Gamma         35.9469000649534 1068.74489273009 35.7203026497258 1069.20919995309 
! Port Impedance         50               0                50               0                
23                             0.166518157177295 -32.3776831408794 0.904376249203872 -128.55566946059 0.904376249203872 -128.55566946059 0.167429843643887 -30.0389643993788 
! Gamma         37.3867487537706 1117.0962627165  37.1533640368661 1117.58877942906 
! Port Impedance         50               0                50               0                
24                             0.152003299664679 -36.9318973726145 0.903274776064331 -134.105286243941 0.903274776064331 -134.105286243941 0.153050704243816 -34.2921603363623 
! Gamma         38.8206829894066 1165.43794393067 38.5807011480932 1165.95904733836 
! Port Impedance         50               0                50               0                
25                             0.136151655806282 -41.2629974933037 0.902193646179592 -139.677289246346 0.902193646179592 -139.677289246346 0.13736706481734 -38.2500737690724 
! Gamma         40.2484235221286 1213.77130479406 40.0020350599464 1214.32134701784 
! Port Impedance         50               0                50               0                
26                             0.119131193373585 -45.2523922463316 0.901058584802382 -145.271468047317 0.901058584802383 -145.271468047317 0.120562877995264 -41.7624796776346 
! Gamma         41.6698027045051 1262.0976449957  41.417196233648  1262.67695569728 
! Port Impedance         50               0                50               0                
27                             0.101144168294168 -48.6891686534198 0.899798032660555 -150.886687889382 0.899798032660556 -150.886687889382 0.102868253936444 -44.5671336165659 
! Gamma         43.0847469293044 1310.41819145102 42.8261074640258 1311.02708042019 
! Port Impedance         50               0                50               0                
28                             0.0824478235860789 -51.1628662361876 0.898346010169545 -156.520931883027 0.898346010169545 -156.520931883027 0.0845926105059273 -46.1685367527954 
! Gamma         44.4932607520123 1358.73409668331 44.2287684338085 1359.37285631269 
! Port Impedance         50               0                50               0                
29                             0.0634137556948018 -51.7678625482613 0.896644865987708 -162.171379730094 0.896644865987708 -162.171379730094 0.0662138700882137 -45.5304309701228 
! Gamma         45.8954127535839 1407.04643913568 45.6252419480842 1407.71534672578 
! Port Impedance         50               0                50               0                
30                             0.0447395666303612 -48.1298915477436 0.894647751334045 -167.834521834452 0.894647751334047 -167.834521834452 0.0486597915974421 -40.2228339887352 
! Gamma         47.2913231048666 1455.35622490465 47.0156417901237 1456.05554481684 
! Port Impedance         50               0                50               0                
31                             0.0284281160167016 -32.7721946702828 0.892320657671907 -173.506305203367 0.892320657671907 -173.506305203367 0.034297360514433 -24.4059484807532 
! Gamma         48.6811527516288 1503.66439048357 48.4001221641728 1504.39437609788 
! Port Impedance         50               0                50               0                
32                             0.0218182100461951 8.58571408867082 0.889643870906168 -179.182305052957 0.889643870906168 -179.182305052957 0.0290763394861581 7.5274754421389  
! Gamma         50.0650941049343 1551.97180624807 49.7788685746211 1552.73270174196 
! Port Impedance         50               0                50               0                
33                             0.0316916592750651 43.6671156595724 0.886612730302762 175.142086191571 0.886612730302761 175.142086191571 0.0370768741439995 36.0167397846852 
! Gamma         51.4433631132037 1600.27928037552 51.1520900520013 1601.0713223258  
! Port Impedance         50               0                50               0                
34                             0.0485440278145539 54.9848682136722 0.883237631618164 169.471462393115 0.883237631618164 169.471462393115 0.0522295362938415 48.4675520295788 
! Gamma         52.816192564093  1648.58756302991 52.5200125713655 1649.41098185462 
! Port Impedance         50               0                50               0                
35                             0.0668016187937515 57.2739706350629 0.879543274777881 163.810210319545 0.879543274777881 163.810210319545 0.069537691875197 52.3116769048174 
! Gamma         54.1838264855789 1696.89735066012 53.8828735492392 1697.75237188628 
! Port Impedance         50               0                50               0                
36                             0.0849863808705616 56.1610023420187 0.875567218264562 158.162329731778 0.875567218264562 158.162329731778 0.0871682460339628 52.3276136255401 
! Gamma         55.5465155187731 1745.2092902667  55.2409172708496 1746.09613566583 
! Port Impedance         50               0                50               0                
37                             0.10253661082499 53.4955131665586 0.871357856288055 152.531276084859 0.871357856288056 152.531276084859 0.104370658331062 50.4652680761645 
! Gamma         56.9045131124164 1793.52398358855 56.5943911391679 1794.44287216191 
! Port Impedance         50               0                50               0                
38                             0.119141265424499 50.0167736302317 0.866971973580712 146.919833002837 0.866971973580713 146.919833002837 0.120745594468141 47.5798808556687 
! Gamma         58.2580724629822 1841.84199110268 57.9435426356761 1842.79313997385 
! Port Impedance         50               0                50               0                
39                             0.134586735187379 46.0721605968119 0.862472052029904 141.330019209732 0.862472052029905 141.330019209732 0.136034917875133 44.09239227633   
! Gamma         59.6074440556218 1890.16383586855 59.288616883624  1891.14746103114 
! Port Impedance         50               0                50               0                
40                             0.148711055512092 41.8453821208295 0.857923502745416 135.763032013854 0.857923502745417 135.763032013854 0.150052208937164 40.2313005484541 
! Gamma         60.9528737420158 1938.49000708802 60.6298547292248 1939.50632409308 
! Port Impedance         50               0                50               0                
41                             0.16138692381422 37.4424507440437 0.853391979246007 130.219226982497 0.853391979246007 130.219226982497 0.162655716376666 36.1306268149521 
! Gamma         62.2946012575291 1986.82096347276 61.9674912631454 1987.87018800222 
! Port Impedance         50               0                50               0                
42                             0.172513969155128 32.9287193426509 0.848940897303456 124.698131448981 0.848940897303456 124.698131448981 0.173736004565009 31.8739336713606 
! Gamma         63.63285911503   2035.15713635314 63.3017546993438 2036.23948472983 
! Port Impedance         50               0                50               0                
43                             0.182014386451398 28.3466151827644 0.844629250638723 119.198488011983 0.844629250638723 119.198488011983 0.183209296806614 27.5159653276562 
! Gamma         64.9678718017333 2083.49893252537 64.6328655717749 2084.61462216096 
! Port Impedance         50               0                50               0                
44                             0.18982993605337 23.7249051591387 0.840509774936565 113.718323341321 0.840509774936565 113.718323341321 0.191013262892733 23.0941430944898 
! Gamma         66.2998552394308 2131.8467368849  65.9610361743618 2132.99598665719 
! Port Impedance         50               0                50               0                
45                             0.195919598671368 19.0839238053555 0.836627480143933 108.255037288832 0.836627480143932 108.255037288832 0.197103997844692 18.6351123662595 
! Gamma         67.6290164508073 2180.20091483369 67.28647021451   2181.38394542149 
! Port Impedance         50               0                50               0                
46                             0.200257648295506 14.4387513589429 0.83301854572619 102.805507428521 0.83301854572619 102.805507428521 0.201453702153334 14.1587318261054 
! Gamma         68.9555533956409 2228.56181444338 68.6093626335536 2229.77884862688 
! Port Impedance         50               0                50               0                
47                             0.202832086237931 9.80130643254983 0.829709556759849 97.3662045763488 0.829709556759849 97.3662045763488 0.204048882296323 9.68068605213616 
! Gamma         70.2796549468578 2276.92976846724 69.9298995638995 2278.18103135704 
! Port Impedance         50               0                50               0                
48                             0.203643444586805 5.18185874772382 0.826717050334042 91.9333154072952 0.826717050334042 91.9333154072952 0.204889015788341 5.21434727020342 
! Gamma         71.6015009722454 2325.30509611207 71.2482583966712 2326.59081539419 
! Port Impedance         50               0                50               0                
49                             0.202703984711538 0.590252168949586 0.824047340511972 86.5028688794602 0.824047340511973 86.5028688794602 0.203985672677329 0.772246159267544 
! Gamma         72.9212625076473 2373.68810468937 72.564607932736  2375.00851079282 
! Port Impedance         50               0                50               0                
50                             0.200037314164435 -3.96297129791063 0.821696594322582 81.0708636750203 0.821696594322583 81.0708636750203 0.201362099602023 -3.6326150527985 
! Gamma         74.2391019908735 2422.07909105657 73.879108603563  2423.43441732753 
! Port Impedance         50               0                50               0                
51                             0.195678437056364 -8.46539277397382 0.819651138822625 75.6333942213736 0.819651138822625 75.6333942213736 0.19705327426267 -7.98542541278497 
! Gamma         75.5551735434808 2470.47834295612 75.1919127389283 2471.86882580579 
! Port Impedance         50               0                50               0                
52                             0.189674246736154 -12.9013229177574 0.817887988072326 70.1867730087046 0.817887988072325 70.1867730087046 0.191106439244631 -12.2680233706448 
! Gamma         76.8696232977433 2518.88614020239 76.5031648737866 2520.31201922531 
! Port Impedance         50               0                50               0                
53                             0.182084472490009 -17.2499838216255 0.816375586914587 64.7276468911763 0.816375586914587 64.7276468911763 0.183582134073586 -16.45692345555  
! Gamma         78.1825897408712 2567.30275575139 77.8130020787084 2568.76427384319 
! Port Impedance         50               0                50               0                
54                             0.172983114427087 -21.4829461397437 0.815074773941725 59.2531048613595 0.815074773941726 59.2531048613596 0.174555775683095 -20.5205753623783 
! Gamma         79.4942040773591 2615.72845666253 79.121554311973  2617.22586011457 
! Port Impedance         50               0                50               0                
55                             0.162460462110783 -25.5602844362614 0.813939967474691 53.7607744822786 0.813939967474692 53.7607744822786 0.164119912281965 -24.4153040588583 
! Gamma         80.8045906011398 2664.16350496591 80.4289447757414 2665.69704355838 
! Port Impedance         50               0                50               0                
56                             0.15062593294035 -29.4244920395841 0.812920574692298 48.2489038368864 0.812920574692299 48.2489038368864 0.1523874383152  -28.0789660326072 
! Gamma         82.1138670715291 2712.60815844019 81.7352902794394 2714.17808551373 
! Port Impedance         50               0                50               0                
57                             0.137612274227654 -32.9903534984056 0.811962614726385 42.7164255978483 0.811962614726385 42.7164255978483 0.139496404431549 -31.4205486525982 
! Gamma         83.4221450851468 2761.0626713083  83.0407016023862 2762.66924384114 
! Port Impedance         50               0                50               0                
58                             0.123582356331715 -36.1272182305574 0.811010531764833 37.1629997490373 0.811010531764832 37.1629997490373 0.125617804274356 -34.3023137349627 
! Gamma         84.7295304431116 2809.52729487695 84.3452838503597 2811.17077354392 
! Port Impedance         50               0                50               0                
59                             0.108741363835595 -38.6263096239645 0.810009155087739 31.5890317060463 0.810009155087739 31.5890317060464 0.11096939364447 -36.5077297091898 
! Gamma         86.0361235120933 2858.00227809078 85.6491368062576 2859.68292733015 
! Port Impedance         50               0                50               0                
60                             0.0933610602158369 -40.1371590147068 0.808905741567977 25.9956631636898 0.808905741567975 25.9956631636898 0.0958425148089021 -37.6814980828157 
! Gamma         87.3420195753674 2906.48786804378 86.952355271042  2908.20595610933 
! Port Impedance         50               0                50               0                
61                             0.0778328713510599 -40.0383323816126 0.807652015377909 20.3847339979104 0.80765201537791 20.3847339979104 0.080658401530726 -37.2148888033111 
! Gamma         88.6473091669356 2954.98431044915 88.2550293933349 2956.7401094626  
! Port Impedance         50               0                50               0                
62                             0.0627935508102814 -37.1741348050685 0.806206102993446 14.7587149353164 0.806206102993447 14.7587149353164 0.0660929529024019 -34.0368179623985 
! Gamma         89.952078399979  3003.49185004847 89.5572449872454 3005.28563605201 
! Port Impedance         50               0                50               0                
63                             0.0494303255131556 -29.4199988600047 0.804534252556304 9.12061241185555 0.804534252556304 9.12061241185556 0.0533476946058719 -26.3560012731172 
! Gamma         91.2564092770244 3052.01073098536 90.8590838368993 3053.84278399239 
! Port Impedance         50               0                50               0                
64                             0.0400736134745753 -13.9005806710879 0.802612228166516 3.47384890148589 0.802612228166516 3.47384890148589 0.044572567014437 -12.1440977700329 
! Gamma         92.5603799887173 3100.54119716141 92.1606239887601 3102.41180119446 
! Port Impedance         50               0                50               0                
65                             0.0380852328866913 8.20712208990159 0.800426283237785 -2.17787618176724 0.800426283237785 -2.17787618176724 0.0425584590653682 7.23925779312232 
! Gamma         93.8640651965264 3149.08349253279 93.4619400294764 3150.99293567961 
! Port Impedance         50               0                50               0                
66                             0.0443734149483998 27.2505462401944 0.797973642320147 -7.83073835640155 0.797973642320147 -7.83073835640155 0.0480856331338575 24.5234537605153 
! Gamma         95.1675363041982 3197.63786140893 94.7631033501472 3199.58643586827 
! Port Impedance         50               0                50               0                
67                             0.0559101117523862 38.0195551097039 0.795262455381977 -13.4809449997396 0.795262455381977 -13.4809449997396 0.0587793302605405 35.1570273498381 
! Gamma         96.4708617114995 3246.20454870733 96.0641823979306 3248.19255083207 
! Port Impedance         50               0                50               0                
68                             0.0697169981880152 42.6719545562336 0.792311228282893 -19.1248891702641 0.792311228282893 -19.1248891702641 0.0719679405213838 40.2486071561037 
! Gamma         97.7741070595653 3294.78380020313 97.3652429162518 3296.81153054694 
! Port Impedance         50               0                50               0                
69                             0.0842000496953129 43.8143410126124 0.789147772889445 -24.7592924314059 0.789147772889445 -24.7592924314059 0.086040472826223 41.8902717047064 
! Gamma         99.0773354588656 3343.37586274845 98.6663481674287 3345.44362611717 
! Port Impedance         50               0                50               0                
70                             0.0985536705277582 42.9582832754841 0.785807754775452 -30.3813297124969 0.785807754775452 -30.3813297124969 0.100127001620538 41.4730115970126 
! Gamma         100.380607705776 3391.9809844879  99.9675591494432 3394.0890899813  
! Port Impedance         50               0                50               0                
71                             0.112323252693512 40.9101877277879 0.782332941491183 -35.9887306990323 0.782332941491183 -35.9887306990323 0.113725255810655 39.7934281518804 
! Gamma         101.683982490423 3440.59941505031 101.268934796685 3442.74817611521 
! Port Impedance         50               0                50               0                
72                             0.125218734249718 38.1152743187898 0.778769267512154 -41.5798540489371 0.778769267512154 -41.5798540489371 0.126514885995783 37.3093221227756 
! Gamma         102.987516588327 3489.23140574345 102.570532171282 3491.42114022252 
! Port Impedance         50               0                50               0                
73                             0.137037571804144 34.8334599340342 0.775164832781171 -47.1537326339931 0.775164832781172 -47.1537326339931 0.138274268178183 34.2945531666574 
! Gamma         104.291265043408 3537.87720972201 103.872406643888 3540.10823990996 
! Port Impedance         50               0                50               0                
74                             0.147630651374342 31.2249983360777 0.771567941744211 -52.7100898228837 0.771567941744211 -52.7100898228837 0.148841947471131 30.9206794400312 
! Gamma         105.595281341741 3586.53708216757 105.174612064088 3588.80973485634 
! Port Impedance         50               0                50               0                
75                             0.156885729086673 27.3936319938238 0.768025271843641 -58.2493283507564 0.768025271843641 -58.2493283507564 0.15809742150426 27.3000098108453 
! Gamma         106.899617574169 3635.21128044735 106.47720092147  3637.5258869878  
! Port Impedance         50               0                50               0                
76                             0.164718517340446 23.4095008388554 0.76458023811689 -63.7724944894378 0.764580238116891 -63.7724944894378 0.165950691035194 23.5091271156889 
! Gamma         108.204324590774 3683.90006427913 107.780224499149 3686.25696063187 
! Port Impedance         50               0                50               0                
77                             0.171067354840569 19.3219882328129 0.761271597355805 -69.2812209790152 0.761271597355804 -69.2812209790152 0.172336032899201 19.6023360244898 
! Gamma         109.509452146775 3732.60369588167 109.083733017285 3735.00322267752 
! Port Impedance         50               0                50               0                
78                             0.175889705541196 15.1673288963002 0.758132314095057 -74.7776525459918 0.758132314095057 -74.7776525459917 0.177207964601197 15.6197348241447 
! Gamma         110.815049038314 3781.32244013908 110.387775769908 3783.76494273613 
! Port Impedance         50               0                50               0                
79                             0.179159702248023 10.9733781797188 0.7551886935189  -80.2643578775166 0.7551886935189  -80.2643578775166 0.180538465050654 11.5923224092066 
! Gamma         112.121163237902 3830.0565647413  111.692401255271 3832.54239329086 
! Port Impedance         50               0                50               0                
80                             0.180866379869306 6.76279982620581 0.752459774146838 -85.7442317400629 0.752459774146837 -85.7442317400629 0.182315013478069 7.54543184762614 
! Gamma         113.427842013696 3878.80634034762 112.997657297802 3881.33584985424 
! Port Impedance         50               0                50               0                
81                             0.181012438771611 2.55537062179519 0.749956966032013 -91.2203906209438 0.749956966032013 -91.2203906209438 0.182539241400906 3.50121919891691 
! Gamma         114.735132050294 3927.57204073821 114.303591166885 3930.14559112099 
! Port Impedance         50               0                50               0                
82                             0.179613468939319 -1.6301792341102 0.747683917520164 -96.6960649232826 0.747683917520165 -96.6960649232826 0.181226103843047 -0.519350861835014 
! Gamma         116.043079558835 3976.3539429645  115.61024968667  3978.97189913146 
! Port Impedance         50               0                50               0                
83                             0.176697607838635 -5.77450752703297 0.745636594355119 -102.174490437497 0.745636594355119 -102.174490437497 0.178403531014459 -4.49472373980696 
! Gamma         117.351730386092 4025.15232751152 116.91767934387  4027.81505942413 
! Port Impedance         50               0                50               0                