! Touchstone file exported from HFSS 2024.2.0
!        File:           C:/Users/vaintrug/Documents/Ansoft_Workspace/Comparaison_Calculs_HFSS/1_VarPort.aedt
!        Generated:      03:22:19 PM Jan 21, 2025
!        Design:         1_NoDeembed_FacePortFree
!        Project:        1_VarPort
!        Setup:          Setup1
!        Solution:       Sweep
!
! Variables:
!        $Lenght = 2000um
!        $PortSize = 270um
!        Gap = 30um
!        Th = 2um
!        X_centralStrip = 20um
!        X_masse = 200um
!        Y_Sub = 2mm
!        Z_Box = 400um
!        Z_Sub = 200um
!
# GHz S MA R 50.000000
! Terminal data exported
! Port[1] = 1
! Port[2] = 2
1                              0.0274788810446596 61.0618585280179 0.985419687098824 -5.89972551469766 0.985419687098823 -5.89972551469767 0.0274786373705814 61.0761682641215 
! Gamma         6.02316738404145 50.0186470327502 6.01858030383168 49.9717536210006 
! Port Impedance         50               0                50               0                
2                              0.0489164124554062 66.6909644521739 0.981900387304845 -11.6648822315438 0.981900387304845 -11.6648822315438 0.0489176547046696 66.7175197295686 
! Gamma         7.81402463583772 98.6268446468302 7.80634527564392 98.5314246419992 
! Port Impedance         50               0                50               0                
3                              0.0705985700949785 65.6610451163102 0.978327262255208 -17.4314222133874 0.978327262255207 -17.4314222133874 0.0706017372582745 65.7003980217109 
! Gamma         9.25982258748558 147.272720980547 9.22719867683675 147.135023014647 
! Port Impedance         50               0                50               0                
4                              0.0917532126696537 62.427520965012  0.974343165858103 -23.1888905477767 0.974343165858103 -23.1888905477767 0.0917592371811757 62.4797913900054 
! Gamma         10.6178175579317 195.974996104394 10.5608000743255 195.809185183898 
! Port Impedance         50               0                50               0                
5                              0.111941016222444 58.2417852829127 0.969933021227718 -28.9281125625424 0.969933021227718 -28.9281125625424 0.111950744322386 58.3068474892976 
! Gamma         11.9611168560276 244.704793157981 11.8847573986216 244.516739689891 
! Port Impedance         50               0                50               0                
6                              0.13086540838927 53.5818366437232 0.965162326944135 -34.6428286462295 0.965162326944135 -34.6428286462295 0.13087945989501 53.6594900767    
! Gamma         13.3139591389638 293.442510958495 13.2221120978682 293.234062540492 
! Port Impedance         50               0                50               0                
7                              0.148303383694157 48.6677513986917 0.960125009228157 -40.328870556935 0.960125009228157 -40.328870556935 0.148322113752047 48.7577531005325 
! Gamma         14.6847885853362 342.175929487116 14.5798099705625 341.947478846707 
! Port Impedance         50               0                50               0                
8                              0.164081544494911 43.6144802870918 0.954926048123311 -45.983798813268 0.95492604812331 -45.983798813268 0.164105022496761 43.7165471041601 
! Gamma         16.0758739589348 390.897222814684 15.959076438898  390.648718716837 
! Port Impedance         50               0                50               0                
9                              0.178065757995439 38.4874937155995 0.949672358458382 -51.6067146952115 0.949672358458381 -51.6067146952115 0.178093752033682 38.6012982767219 
! Gamma         17.4867387795076 439.601274683443 17.3587808117473 439.332589840372 
! Port Impedance         50               0                50               0                
10                             0.19015507256027 33.326307018784  0.944466648556861 -57.1981084263346 0.944466648556861 -57.1981084263346 0.190187038805424 33.451471793603  
! Gamma         18.9156016976006 488.284763390672 18.7767417976166 487.995821005638 
! Port Impedance         50               0                50               0                
11                             0.200277040188928 28.1556548236864 0.939402948239067 -62.7596993815017 0.939402948239068 -62.7596993815017 0.200312117397224 28.2917447391922 
! Gamma         20.3600667814843 536.945637207887 20.210322438344  536.63644671142  
! Port Impedance         50               0                50               0                
12                             0.208383616286991 22.9913461760002 0.934563388855216 -68.2942593662694 0.934563388855216 -68.2942593662694 0.208420625181858 23.137859353051  
! Gamma         21.8174941587995 585.5827869179   21.6567396591887 585.253446316591 
! Port Impedance         50               0                50               0                
13                             0.214447478046124 17.8436199381233 0.930016023389673 -73.805422288969 0.930016023389672 -73.805422288969 0.214484924884381 17.9999759013258 
! Gamma         23.2852126148079 634.195822997815 23.1132414061046 633.846509463999 
! Port Impedance         50               0                50               0                
14                             0.218458813038407 12.7192450825822 0.925813515226207 -79.2974869179572 0.925813515226207 -79.2974869179572 0.218494896404031 12.884769519613  
! Gamma         24.7606485810903 682.784911628439 24.5772130863737 682.415868750235 
! Port Impedance         50               0                50               0                
15                             0.220422671560861 7.62296335973548 0.921992533735747 -84.775219242465 0.921992533735746 -84.775219242465 0.220455291277339 7.79686831239052 
! Gamma         26.2414038531189 731.350646869658 26.0462414806373 730.962171788126 
! Port Impedance         50               0                50               0                
16                             0.220356956823044 2.55858740576429 0.91857370842373 -90.243659530514 0.91857370842373 -90.243659530514 0.220383723711716 2.73994523976954 
! Gamma         27.7253003956783 779.893946932719 27.5181506247987 779.486378662415 
! Port Impedance         50               0                50               0                
17                             0.218291089432162 -2.47006165750543 0.915562016743869 -95.7079375807621 0.91556201674387 -95.7079375807621 0.218309334422527 -2.28235277802665 
! Gamma         29.2104028030926 828.415969505055 28.9910183077915 827.989678099757 
! Port Impedance         50               0                50               0                
18                             0.214265344375201 -7.45824754164938 0.912947510929513 -101.173098364778 0.912947510929513 -101.173098364778 0.214272125045195 -7.26551001447875 
! Gamma         30.6950248332946 876.918040451084 30.4631787278066 876.473418142463 
! Port Impedance         50               0                50               0                
19                             0.208330827276669 -12.3993251850721 0.910706321302823 -106.643939450723 0.910706321302823 -106.643939450723 0.208322929127552 -12.2031651209678 
! Gamma         32.1777254945087 925.401596372379 31.9332155233812 924.939049171423 
! Port Impedance         50               0                50               0                
20                             0.200550034346974 -17.2835195220133 0.908801903090318 -112.124861314635 0.908801903090318 -112.124861314635 0.200523962744463 -17.0859141955264 
! Gamma         33.657297104314  973.868136368186 33.3999481271281 973.3880774653   
! Port Impedance         50               0                50               0                
21                             0.190997930597621 -22.0962701999197 0.907186517155905 -117.619731818466 0.907186517155906 -117.619731818466 0.19094988688353 -21.899691490234 
! Gamma         35.132749029067  1022.31918425431 34.862413868912  1021.82202803763 
! Port Impedance         50               0                50               0                
22                             0.179763490528357 -26.8157979658946 0.905802949706337 -123.131766624265 0.905802949706337 -123.131766624265 0.179689321545548 -26.6233902949507 
! Gamma         36.6032882392287 1070.75625829528 36.3198476887646 1070.24241538607 
! Port Impedance         50               0                50               0                
23                             0.166951690916811 -31.4092685346113 0.904586480485919 -128.66342798849 0.90458648048592 -128.66342798849 0.166846793415821 -31.2251113852363 
! Gamma         38.0682989093143 1119.18084809435 37.7716608108618 1118.65072115482 
! Port Impedance         50               0                50               0                
24                             0.152686067493838 -35.826344269206 0.903467102411823 -134.216345043235 0.903467102411822 -134.216345043235 0.152545214266787 -35.6558489330424 
! Gamma         39.5273214260342 1167.59439731771 39.2174194122853 1167.04837759825 
! Port Impedance         50               0                50               0                
25                             0.137112244817786 -39.9876192363803 0.902371978579473 -139.791259170673 0.902371978579473 -139.791259170673 0.136929270372992 -39.8381422270138 
! Gamma         40.9800323105084 1215.99829139062 40.6568240189967 1215.43675591147 
! Port Impedance         50               0                50               0                
26                             0.120403587751242 -43.7623562911418 0.901228096560857 -145.387998204963 0.901228096560856 -145.387998204963 0.120170810522138 -43.6441608535765 
! Gamma         42.426224896261  1264.39384925535 42.0896901277951 1263.81715853639 
! Port Impedance         50               0                50               0                
27                             0.102772091881014 -46.9219596964695 0.899965048135034 -151.005482855945 0.899965048135034 -151.005482855945 0.10247921479296 -46.8496933321984 
! Gamma         43.86579164925   1312.78231837745 43.5159303374157 1312.19081470534 
! Port Impedance         50               0                50               0                
28                             0.0844934923263074 -49.0325988965104 0.898517829369895 -156.641767798533 0.898517829369895 -156.641767798533 0.0841254104454258 -49.0272148661706 
! Gamma         45.298708121245  1361.16487237272 44.9355381715378 1360.55887853651 
! Port Impedance         50               0                50               0                
29                             0.0659757791921807 -49.1756956010192 0.896829526962535 -162.294118345008 0.896829526962535 -162.294118345008 0.0655080377434863 -49.2642975021215 
! Gamma         46.7250183497667 1409.54261075882 46.3485736372804 1408.92242907597 
! Port Impedance         50               0                50               0                
30                             0.0479833260627324 -45.1183667628204 0.894853737804366 -167.959121574709 0.894853737804366 -167.959121574709 0.0473735693842113 -45.3096936125425 
! Gamma         48.1448221120574 1457.91656008172 47.7551504873666 1457.28247183549 
! Port Impedance         50               0                50               0                
31                             0.0325145070221154 -30.828138340679 0.892556565019539 -173.632828426898 0.892556565019539 -173.632828426898 0.0317075279994097 -30.888206110535 
! Gamma         49.5582638486406 1506.28767639342 49.1554251223333 1505.63994145041 
! Port Impedance         50               0                50               0                
32                             0.0255536957146257 3.11650480720778 0.889918048485274 -179.310920854691 0.889918048485274 -179.310920854691 0.0247083798388052 4.34626201164306 
! Gamma         50.9655227979696 1554.65684813164 50.5495870196738 1553.99570502818 
! Port Impedance         50               0                50               0                
33                             0.0330230038408343 36.0538945072349 0.886932921348558 175.011103991406 0.886932921348558 175.011103991406 0.0325626407679501 38.0093414877351 
! Gamma         52.366804807716  1603.02490012642 51.9378505542934 1602.3505660474  
! Port Impedance         50               0                50               0                
34                             0.0483288577687512 49.5279184715196 0.883610633124831 169.337742128299 0.88361063312483 169.337742128299 0.048172093425456 51.2111675292806 
! Gamma         53.7623352945605 1651.39259740055 53.320448076824  1650.70526852853 
! Port Impedance         50               0                50               0                
35                             0.065739657399899 53.29805254113   0.879974638392592 163.673293947144 0.879974638392592 163.673293947144 0.065758004371753 54.7338079019858 
! Gamma         55.1523532346911 1699.76064937702 54.6976241203057 1699.0605013063  
! Port Impedance         50               0                50               0                
36                             0.0833847125775422 53.0793146861364 0.876061009657778 158.0216883141   0.876061009657778 158.0216883141   0.0835167441368853 54.3613860231694 
! Gamma         56.5371062429955 1748.12971412883 56.0696305825067 1747.41690233356 
! Port Impedance         50               0                50               0                
37                             0.100550700155146 50.9888582941934 0.871916485179232 152.386328471176 0.871916485179231 152.386328471176 0.100765665966757 52.1759489366511 
! Gamma         57.9168465317533 1796.50040247366 57.4367227720484 1795.7750628881  
! Port Impedance         50               0                50               0                
38                             0.116865069036991 47.9052872935492 0.867596100439147 146.769966740678 0.867596100439148 146.769966740678 0.117145462634413 49.0325530120801 
! Gamma         59.2918274864997 1844.87328192143 58.7991561998855 1844.13553163734 
! Port Impedance         50               0                50               0                
39                             0.132085974858632 44.2470592399093 0.863160571357277 141.174612674675 0.863160571357277 141.174612674675 0.132420606450781 45.3366734383893 
! Gamma         60.6623010655018 1893.24888060671 60.1571840049396 1892.49881848713 
! Port Impedance         50               0                50               0                
40                             0.146037053879027 40.2365513525908 0.858673597574143 135.601476768067 0.858673597574143 135.601476768067 0.146418069019584 41.3033955487584 
! Gamma         62.028515542042  1941.62769083085 61.5110549233603 1940.86539823219 
! Port Impedance         50               0                50               0                
41                             0.158583000780816 36.0022686930224 0.854199237655367 130.050949488825 0.854199237655367 130.050949488825 0.159004482484093 37.0569516479566 
! Gamma         63.3907139772079 1990.01017249298 62.8610117178794 1989.23571394503 
! Port Impedance         50               0                50               0                
42                             0.169618663543048 31.6234290085683 0.849799479592183 124.522613410428 0.849799479592183 124.522613410428 0.170075936665408 32.6739656260009 
! Gamma         64.7491327969816 2038.39675620677 64.2072899941177 2037.61018014181 
! Port Impedance         50               0                50               0                
43                             0.179063203331486 27.1514306055591 0.845532095301931 119.015284778079 0.845532095301931 119.015284778079 0.179552480508164 28.2042318417698 
! Gamma         66.1040009059387 2086.78784628324 65.5501173323006 2085.98918568347 
! Port Impedance         50               0                50               0                
44                             0.186856365358783 22.6210808714471 0.841448832447307 113.52707998442  0.841448832447306 113.52707998442  0.187374573439652 23.6815749636231 
! Gamma         67.4555390160225 2135.18382333574 66.8897126966361 2134.37309645067 
! Port Impedance         50               0                50               0                
45                             0.192955755456489 18.0569130500692 0.8375939653513  108.055502080951 0.837593965351301 108.055502080951 0.193500465445997 19.129962846282  
! Gamma         68.8039591819261 2183.58504683537 68.2262860476625 2182.76225778064 
! Port Impedance         50               0                50               0                
46                             0.197334705980812 13.4769948504665 0.834003201945634 102.597542550213 0.834003201945634 102.597542550213 0.197904128094752 14.5672010460256 
! Gamma         70.1494645427292 2231.99185728716 69.5600381521822 2231.15699670016 
! Port Impedance         50               0                50               0                
47                             0.199980586492798 8.89539791293296 0.830702926923165 97.1497939374056 0.830702926923165 97.1497939374056 0.200573611287943 10.0073406067113 
! Gamma         71.4922492030531 2280.40457827607 70.8911605196617 2279.55762393057 
! Port Impedance         50               0                50               0                
48                             0.200893521598865 4.32393876220324 0.827709752494926 91.7085694769869 0.827709752494926 91.7085694769869 0.201509798858948 5.4623908143475  
! Gamma         72.832498240708  2328.82351839052 72.2198354644894 2327.96443572038 
! Port Impedance         50               0                50               0                
49                             0.200085515944409 -0.226462799555173 0.825030346300743 86.2700264063424 0.825030346300743 86.2700264063424 0.200725569885539 0.943673596460049 
! Gamma         74.1703878078374 2377.24897283482 73.5462362547542 2376.37771549974 
! Port Impedance         50               0                50               0                
50                             0.197579994279606 -4.74458795085276 0.822661509434888 80.8302901473684 0.822661509434888 80.8302901473684 0.198245379074618 -3.53696414071624 
! Gamma         75.506085373397  2425.68122498913 74.8705273318053 2424.79773536141 
! Port Impedance         50               0                50               0                
51                             0.193411761377203 -9.21771853234665 0.82059048421662 75.3855768797141 0.82059048421662 75.3855768797141 0.19410526653194 -7.96591276240216 
! Gamma         76.8397498551603 2474.12054774381 76.1928645841263 2473.22475740675 
! Port Impedance         50               0                50               0                
52                             0.187627382212789 -13.6302700017626 0.818795479267793 69.932312200835  0.818795479267793 69.9323122008351 0.188353304317428 -12.3263710748661 
! Gamma         78.1715319931963 2522.56720478286 77.5133956566638 2521.65903492977 
! Port Impedance         50               0                50               0                
53                             0.18028598512859 -17.9620573294243 0.817246406712319 64.4672435669387 0.817246406712321 64.4672435669387 0.181050492697593 -16.5965190093288 
! Gamma         79.5015746285478 2571.02145163342 78.8322602919078 2570.1008135228  
! Port Impedance         50               0                50               0                
54                             0.171460509182876 -22.1858983455961 0.815905831219258 58.9875440524199 0.815905831219259 58.9875440524199 0.172272143334635 -20.7469853043488 
! Gamma         80.830013049402  2619.48353670623 80.1495906866011 2618.55033201432 
! Port Impedance         50               0                50               0                
55                             0.161239468443199 -26.2640687116473 0.814730131752309 53.4909047179337 0.814730131752308 53.4909047179337 0.162109848719822 -24.7371089120344 
! Gamma         82.1569753084233 2667.95370214572 81.4655118604265 2667.00782335491 
! Port Impedance         50               0                50               0                
56                             0.149729424215743 -30.1427516214965 0.813670873328001 47.9756126102273 0.813670873328001 47.9756126102273 0.15067427415348 -28.5091198918659 
! Gamma         83.4825826632405 2716.43218469501 82.7801420249318 2715.47351537703 
! Port Impedance         50               0                50               0                
57                             0.137058614809722 -33.7428866540037 0.812676377332664 42.4406112273873 0.812676377332663 42.4406112273873 0.138099301096253 -31.9786381515557 
! Gamma         84.8069498458128 2764.91921634277 84.0935929579472 2763.94763148463 
! Port Impedance         50               0                50               0                
58                             0.123382761400288 -36.9442942339301 0.811693465328498 36.8855402562244 0.811693465328498 36.8855402562244 0.124548680301735 -35.0184257268494 
! Gamma         86.1301854493779 2813.41502501638 85.4059703658896 2812.43039128705 
! Port Impedance         50               0                50               0                
59                             0.108895370261942 -39.5566522803289 0.810669333814025 31.3107516416817 0.810669333814025 31.3107516416817 0.110227756426613 -37.4292965290151 
! Gamma         87.4523923284864 2861.91983508942 86.7173742462095 2860.92201112368 
! Port Impedance         50               0                50               0                
60                             0.093848004949819 -41.2635046040373 0.80955349805452 25.7172996248291 0.80955349805452 25.7172996248291 0.0954061027763514 -38.8857232221353 
! Gamma         88.7736678595639 2910.43386798666 88.0278992328825 2909.42270457113 
! Port Impedance         50               0                50               0                
61                             0.0785941435519336 -41.508835778932 0.808299724538665 20.1069033477724 0.808299724538665 20.1069033477724 0.0804648966045503 -38.8310200519667 
! Gamma         90.094104332062  2958.95734255728 89.337634934868  2957.93268287233 
! Port Impedance         50               0                50               0                
62                             0.0636921903942358 -39.2632666454414 0.806867857006123 14.4818819270366 0.806867857006123 14.4818819270366 0.0660023701222151 -36.2797768321037 
! Gamma         91.4137892656147 3007.49047551861 90.6466662591358 3006.45215533917 
! Port Impedance         50               0                50               0                
63                             0.050158079856262 -32.601827330426 0.805225433469643 8.8450634832088  0.805225433469644 8.84506348320879 0.0530695658826065 -29.529399427008 
! Gamma         92.7328056676918 3056.03348185605 91.95507372122   3054.98132968522 
! Port Impedance         50               0                50               0                
64                             0.0400047816325618 -18.5911722910712 0.803348993734948 3.19967131797238 0.803348993734948 3.19967131797238 0.0435904741376145 -16.3531914221941 
! Gamma         94.0512324118024 3104.58657505897 93.2629337413455 3103.52041233884 
! Port Impedance         50               0                50               0                
65                             0.0364786583012201 3.056937272873   0.801224989878816 -2.45080790354638 0.801224989878816 -2.45080790354638 0.0403391628722111 2.89873606194692 
! Gamma         95.3691444456384 3153.14996750342 94.5703189257639 3152.06960872932 
! Port Impedance         50               0                50               0                
66                             0.0412396985089952 23.5893710752326 0.798850235600072 -8.10276771184819 0.798850235600072 -8.10276771184819 0.0446204522670109 21.3114311328729 
! Gamma         96.6866130961445 3201.72387069305 95.8772983335656 3200.62912352536 
! Port Impedance         50               0                50               0                
67                             0.0517545406290155 35.9214242485219 0.796231862095483 -13.7526299188521 0.796231862095484 -13.7526299188521 0.0543942263365348 33.0980846293963 
! Gamma         98.0037063056413 3250.30849542301 97.1839377305933 3249.19916085973 
! Port Impedance         50               0                50               0                
68                             0.064870968152148 41.524988974516  0.793386784412009 -19.3969896324489 0.793386784412009 -19.3969896324489 0.0668874066539025 38.8783301496823 
! Gamma         99.3204888768052 3298.9040521029  98.4902998272211 3297.77992452542 
! Port Impedance         50               0                50               0                
69                             0.0788224505656968 43.2149723945033 0.790340718469103 -25.0327498563209 0.790340718469104 -25.0327498563209 0.0803686859319819 40.8796327367745 
! Gamma         100.637022758916 3347.51075087036 99.7964445038861 3346.37161815582 
! Port Impedance         50               0                50               0                
70                             0.0927303203565676 42.6965739842422 0.787126820495622 -30.657239185682 0.787126820495621 -30.657239185682 0.0939150919430664 40.6432819049258 
! Gamma         101.9533671291   3396.12880176575 101.102429023815 3394.97444537966 
! Port Impedance         50               0                50               0                
71                             0.106112628435177 40.8767633614055 0.783784043715119 -36.2683074497335 0.783784043715119 -36.2683074497335 0.107005664865548 39.0487699367177 
! Gamma         103.269578722757 3444.75841491176 102.408308230844 3443.58860997029 
! Port Impedance         50               0                50               0                
72                             0.118669292249039 38.2505825572834 0.780355319498182 -41.8643958015456 0.780355319498182 -41.8643958015456 0.11931458309201 36.5957419988275 
! Gamma         104.585711952361 3493.39980063107 103.714134738174 3492.2143159727  
! Port Impedance         50               0                50               0                
73                             0.130194318169648 35.1037468645001 0.776885671462146 -47.444579521603 0.776885671462146 -47.444579521603 0.130619546383847 33.5795801051593 
! Gamma         105.901819115056 3542.05316959796 105.019959103538 3540.85176782339 
! Port Impedance         50               0                50               0                
74                             0.140537668926398 31.610768657527  0.773420362419651 -53.0085834703714 0.773420362419651 -53.0085834703714 0.14076005730411 30.1833992352058 
! Gamma         107.217950557138 3590.71873294091 106.325829993051 3589.50117045288 
! Port Impedance         50               0                50               0                
75                             0.149587127863196 27.8838587516712 0.770003158183701 -58.5567715686736 0.770003158183701 -58.5567715686736 0.149617014730379 26.5260044249426 
! Gamma         108.534154807658 3639.39670229202 107.631794336798 3638.16272939257 
! Port Impedance         50               0                50               0                
76                             0.15725876995455 23.9985958260949 0.766674772187587 -64.0901127859927 0.766674772187587 -64.0901127859928 0.157101833197197 22.6877886955429 
! Gamma         109.850478780931 3688.08729002104 108.937897471363 3686.83665085868 
! Port Impedance         50               0                50               0                
77                             0.163491417571102 20.0081734458339 0.763471533803772 -69.610126845188 0.763471533803772 -69.610126845188 0.163150088821935 18.7253782894523 
! Gamma         111.166967831831 3736.79070917772 110.244183277651 3735.52314183919 
! Port Impedance         50               0                50               0                
78                             0.168243100870677 15.9517635135381 0.760424303782175 -75.118813235337 0.760424303782175 -75.118813235337 0.167717479775196 14.6803350703734 
! Gamma         112.483665951405 3785.50717365394 111.550694304383 3784.22241017042 
! Port Impedance         50               0                50               0                
79                             0.171488640822892 11.859722181678  0.75755764419266 -80.6185672052575 0.757557644192659 -80.6185672052575 0.170777087062049 10.5846102601993 
! Gamma         113.800615884712 3834.23689826748 112.857471888029 3832.9346646132  
! Port Impedance         50               0                50               0                
80                             0.173217954562729 7.75705327933611 0.754889238605715 -86.1120862854948 0.754889238605715 -86.1120862854948 0.172317459788995 6.46417768946608 
! Gamma         115.117859210693 3882.98009880309 114.164556262682 3881.66011492471 
! Port Impedance         50               0                50               0                
81                             0.17343490253285 3.66590918509665 0.752429551084704 -91.6022706328294 0.752429551084704 -91.6022706328294 0.172341299620328 2.34164522595652 
! Gamma         116.435436446    3931.73699207328 115.471986663999 3930.39897191353 
! Port Impedance         50               0                50               0                
82                             0.172156599820848 -0.392405890169635 0.750181709409377 -97.0921202015621 0.750181709409376 -97.0921202015621 0.170864638459709 -1.76167517620352 
! Gamma         117.753387200436 3980.50779606783 116.779801425236 3979.15144751983 
! Port Impedance         50               0                50               0                
83                             0.169413164873652 -4.39561775003835 0.748141597831635 -102.584631468756 0.748141597831636 -102.584631468756 0.167916462462843 -5.82391464639855 
! Gamma         119.071750212636 4029.29272991298 118.088038068547 4027.9177548633  
! Port Impedance         50               0                50               0                