! Touchstone file exported from HFSS 2024.2.0
!        File:           C:/Users/vaintrug/Documents/Ansoft_Workspace/Comparaison_Calculs_HFSS/1_VarPort.aedt
!        Generated:      03:22:17 PM Jan 21, 2025
!        Design:         1_NoDeembed_FacePortFree
!        Project:        1_VarPort
!        Setup:          Setup1
!        Solution:       Sweep
!
! Variables:
!        $Lenght = 1500um
!        $PortSize = 320um
!        Gap = 30um
!        Th = 2um
!        X_centralStrip = 20um
!        X_masse = 200um
!        Y_Sub = 1.5mm
!        Z_Box = 400um
!        Z_Sub = 200um
!
# GHz S MA R 50.000000
! Terminal data exported
! Port[1] = 1
! Port[2] = 2
1                              0.0212708395652555 63.1145992132816 0.989078858947647 -4.4290642472212 0.989078858947648 -4.4290642472212 0.0212730946611542 63.0883608393417 
! Gamma         5.75802925337287 49.7025319290187 5.81349182596638 49.6475819819138 
! Port Impedance         50               0                50               0                
2                              0.0381329473367007 69.8856449273101 0.98653930963864 -8.75655195858253 0.986539309638639 -8.75655195858253 0.0381336324141971 69.8311438592053 
! Gamma         7.45692948082421 98.1382381233118 7.49696047010309 98.0311036331003 
! Port Impedance         50               0                50               0                
3                              0.0553444668050377 70.1527392632498 0.984024241458827 -13.0880616985479 0.984024241458828 -13.0880616985479 0.0553415711867449 70.0724467028505 
! Gamma         8.83670021109477 146.628625344162 8.86700091223328 146.477432941401 
! Port Impedance         50               0                50               0                
4                              0.0724088572948589 68.2668098947862 0.981237700607206 -17.4172829381772 0.981237700607207 -17.4172829381772 0.0724008091620951 68.160751914782  
! Gamma         10.1459970955292 195.181283622551 10.1698856108998 194.987472799888 
! Port Impedance         50               0                50               0                
5                              0.0890619128451916 65.4410085495326 0.978139348027128 -21.7384244656705 0.978139348027128 -21.7384244656705 0.0890470904738875 65.3089458053624 
! Gamma         11.450142020159  243.761639789837 11.469277041504  243.525155550735 
! Port Impedance         50               0                50               0                
6                              0.10513381765067 62.1370461184915 0.974746192872166 -26.0474430253467 0.974746192872165 -26.0474430253468 0.105110593839068 61.9787017514446 
! Gamma         12.7683435171183 292.348965503931 12.7834554490257 292.06952200292  
! Port Impedance         50               0                50               0                
7                              0.120497443127775 58.5669086550453 0.971095068155776 -30.3413594210797 0.971095068155777 -30.3413594210797 0.120464222489482 58.381979873565  
! Gamma         14.1062948762897 340.931347858128 14.117663924593  340.608730922141 
! Port Impedance         50               0                50               0                
8                              0.135050611485859 54.8412887460253 0.967231932481104 -34.6179632883606 0.967231932481104 -34.6179632883606 0.135005848581067 54.6294394911025 
! Gamma         15.4648278025539 389.501559401333 15.4725276544014 389.135667385446 
! Port Impedance         50               0                50               0                
9                              0.148709141015139 51.0235563209501 0.963207266767084 -38.8756902514906 0.963207266767084 -38.8756902514906 0.148651348910868 50.7844103071234 
! Gamma         16.8427391081619 438.055048581059 16.8467545813391 437.645873352687 
! Port Impedance         50               0                50               0                
10                             0.161403558612975 47.1524892957829 0.959073326874733 -43.1135586395172 0.959073326874732 -43.1135586395173 0.161331312778031 46.8856242692333 
! Gamma         18.237907096441  486.5889537903   18.2381908956588 486.136554690419 
! Port Impedance         50               0                50               0                
11                             0.173077134545334 43.2529718452495 0.954882169047157 -47.3311236630709 0.954882169047157 -47.3311236630709 0.172989074314833 42.9579142864121 
! Gamma         19.6478113315517 535.10157780297  19.6443115802354 534.606059633676 
! Port Impedance         50               0                50               0                
12                             0.183684407662672 39.3414940301002 0.950684125128956 -51.5284339856292 0.950684125128957 -51.5284339856292 0.183579236362407 39.017713656435  
! Gamma         21.069808526755  583.59207613739  21.0624819911729 583.053572514134 
! Port Impedance         50               0                50               0                
13                             0.193189901673729 35.4291941910362 0.94652661401127 -55.7059860155414 0.94652661401127 -55.7059860155415 0.193066385973329 35.0760978352196 
! Gamma         22.5012929697201 632.060251155001 22.4901109318834 631.478912297353 
! Port Impedance         50               0                50               0                
14                             0.201566935683501 31.523652692079  0.942453235356408 -59.8646752827552 0.942453235356409 -59.8646752827552 0.201423904462582 31.140577164152  
! Gamma         23.9397938914718 680.506402828587 23.9247440921374 679.882386619765 
! Port Impedance         50               0                50               0                
15                             0.208796510814877 27.6300119091397 0.938503107089277 -64.0057457519087 0.938503107089277 -64.0057457519087 0.208632853663258 27.2162155942303 
! Gamma         25.3830342660461 728.93121286051  25.3641206978128 728.264678330316 
! Port Impedance         50               0                50               0                
16                             0.214866282956204 23.7517139294218 0.934710411199109 -68.1307383200638 0.934710411199109 -68.1307383200638 0.214680948292324 23.3063667541823 
! Gamma         26.8289638117721 777.335650885704 26.8062053761564 776.626753555537 
! Port Impedance         50               0                50               0                
17                             0.219769639130173 19.8910119683455 0.931104113156858 -72.2414396474241 0.931104113156859 -72.2414396474242 0.219561631825085 19.4131833743045 
! Gamma         28.2757739799025 825.720896993532 28.2492024936241 824.969785636451 
! Port Impedance         50               0                50               0                
18                             0.223504893077766 16.0493433333443 0.927707821991886 -76.33983222546  0.927707821991886 -76.33983222546  0.223273271383687 15.5379878080839 
! Gamma         29.7219000161432 874.088277440429 29.6915579662382 873.29509195564  
! Port Impedance         50               0                50               0                
19                             0.226074611193884 12.2276159195628 0.924539761114789 -80.4280462755718 0.92453976111479 -80.4280462755718 0.225818482681943 11.681555508339  
! Gamma         31.1660139471105 922.439211578769 31.1319522151632 921.604081704374 
! Port Impedance         50               0                50               0                
20                             0.227485074440333 8.42644072525953 0.921612824257747 -84.5083138193569 0.921612824257747 -84.5083138193569 0.227203590559443 7.84434380437734 
! Gamma         32.6070113526663 970.775168558038 32.5692870173236 969.898213270695 
! Port Impedance         50               0                50               0                
21                             0.227745877288939 4.64633218259    0.918934695724085 -88.5829250447543 0.918934695724085 -88.5829250447543 0.227438226029274 4.02668751268618 
! Gamma         34.0439941489616 1019.09763258707 34.0026684963141 1018.17896001735 
! Port Impedance         50               0                50               0                
22                             0.226869660840321 0.887892246036821 0.916508019165594 -92.654186956791 0.916508019165593 -92.654186956791 0.226535056841063 0.228977083096944 
! Gamma         35.4762511608948 1067.40807569016 35.4313878796281 1066.44778340125 
! Port Impedance         50               0                50               0                
23                             0.224871974315164 -2.8480085139952 0.914330603918082 -96.7243842271017 0.914330603918081 -96.7243842271017 0.224509645531349 -3.54816796193748 
! Gamma         36.903237703103  1115.70793688629 36.8549013784923 1114.70611244002 
! Port Impedance         50               0                50               0                
24                             0.221771257162322 -6.56004023289632 0.912395662227174 -100.795742120512 0.912395662227174 -100.795742120512 0.221380426925915 -7.30371823251858 
! Gamma         38.3245552518199 1163.99860685773 38.2728100882493 1162.95532856138 
! Port Impedance         50               0                50               0                
25                             0.217588932320611 -10.2461995984636 0.91069207448724 -104.870391418405 0.910692074487241 -104.870391418405 0.217168795206348 -11.0360332981535 
! Gamma         39.7399318267092 1212.28141716951 39.6848406116064 1211.19675494982 
! Port Impedance         50               0                50               0                
26                             0.212349600611696 -13.9035549819725 0.909204682564132 -108.950335292241 0.909204682564132 -108.950335292241 0.211899289920988 -14.742624047245 
! Gamma         41.1492035402785 1260.5576332583  41.0908268473185 1259.43164957688 
! Port Impedance         50               0                50               0                
27                             0.20608132579945 -17.5279274139309 0.907914613589891 -113.037418180283 0.907914613589892 -113.037418180283 0.205599869588962 -18.4198568636043 
! Gamma         42.5522976560153 1308.82845043148 42.4906932386258 1307.66120124135 
! Port Impedance         50               0                50               0                
28                             0.198816000832623 -21.1134734759419 0.906799638020732 -117.133296804123 0.906799638020732 -117.133296804123 0.198302262095593 -22.0625681872185 
! Gamma         43.9492172356235 1357.0949922722  43.8844396067046 1355.88652792274 
! Port Impedance         50               0                50               0                
29                             0.190589787920526 -24.6521186398823 0.905834566437536 -121.239413583384 0.905834566437536 -121.239413583384 0.190042382488653 -25.6635417892764 
! Gamma         45.3400274709883 1405.35831085617 45.2721276337939 1404.10867701443 
! Port Impedance         50               0                50               0                
30                             0.1814436305849  -28.132760009179 0.904991689289986 -125.356972791823 0.904991689289987 -125.356972791823 0.180860813119707 -29.2127734866841 
! Gamma         46.7248436479686 1453.61938842091 46.6538689472145 1452.32862687861 
! Port Impedance         50               0                50               0                
31                             0.171423845938851 -31.5401064289916 0.904241262803812 -129.4869199169  0.904241262803813 -129.4869199169  0.17080334921787 -32.6964002154446 
! Gamma         48.1038206753258 1501.8791399465  48.0298147622383 1500.54728940398 
! Port Impedance         50               0                50               0                
32                             0.160582825801749 -34.8529332432702 0.903552042357628 -133.629924748141 0.903552042357628 -133.629924748141 0.159921629884037 -36.0950849173877 
! Gamma         49.4771440624212 1550.13841653142 49.400146937261  1548.76551329574 
! Port Impedance         50               0                50               0                
33                             0.148979914155645 -38.0413619542392 0.902891862037989 -137.786368775783 0.90289186203799 -137.786368775783 0.1482739071947  -39.3814901236539 
! Gamma         50.8450222310802 1598.39800912542 50.7650703592103 1596.98408774706 
! Port Impedance         50               0                50               0                
34                             0.136682605402773 -41.0624541212724 0.902228255852398 -141.956337504346 0.902228255852398 -141.956337504346 0.135926071399796 -42.516165890662 
! Gamma         52.2076800268843 1646.65865260161 52.1248064902417 1645.20374642979 
! Port Impedance         50               0                50               0                
35                             0.123768366204658 -43.8527619406057 0.90152911236408 -146.139618246548 0.90152911236408 -146.139618246548 0.122953185837689 -45.4405515034716 
! Gamma         53.5653532801209 1694.92102987228 53.4795879828488 1693.42517155598 
! Port Impedance         50               0                50               0                
36                             0.110327726484183 -46.3151002857814 0.9007633506616  -150.335703897985 0.9007633506616  -150.335703897985 0.109442081894104 -48.0644369330207 
! Gamma         54.9182843170774 1743.18577603015 54.8296541964706 1741.64899793323 
! Port Impedance         50               0                50               0                
37                             0.0964700815084246 -48.293682636981 0.899901601800432 -154.5438030621  0.899901601800431 -154.5438030621  0.0954962634042014 -50.2420996593616 
! Gamma         56.2667182666829 1791.45348236682 56.1752475363246 1789.87581696901 
! Port Impedance         50               0                50               0                
38                             0.0823356547392038 -49.5241853888965 0.898916876569834 -158.762856718351 0.898916876569834 -158.762856718351 0.0812461684290074 -51.7235061635426 
! Gamma         57.6109000847481 1839.72470027583 57.516610475257  1838.10618046439 
! Port Impedance         50               0                50               0                
39                             0.068122644373755 -49.5256073470632 0.897785198001226 -162.991561407904 0.897785198001226 -162.991561407904 0.0668729841631181 -52.0456513314883 
! Gamma         58.9510721679383 1887.99994493978 58.853983173035  1886.34060428577 
! Port Impedance         50               0                50               0                
40                             0.0541557493021801 -47.3473987079964 0.896486175765522 -167.228398659181 0.896486175765522 -167.228398659181 0.0526708854993833 -50.2663002038963 
! Gamma         60.2874724801225 1936.2796987932  60.1876015980062 1934.5795717835  
! Port Impedance         50               0                50               0                
41                             0.0410796626632514 -40.9575203634929 0.895003499793221 -171.471670105086 0.895003499793222 -171.471670105086 0.0392336343408034 -44.259130112702 
! Gamma         61.6203331181787 1984.56441476492 61.5176960870426 1982.82353700086 
! Port Impedance         50               0                50               0                
42                             0.0304295920332416 -26.1306613053109 0.893325332223887 -175.719537479704 0.893325332223887 -175.719537479704 0.0280725399746073 -29.0985217668908 
! Gamma         62.9498792243996 2032.85451930516 62.8444902498782 2031.07292763826 
! Port Impedance         50               0                50               0                
43                             0.0256506620930142 0.994368894611035 0.891444580151867 -179.970066435717 0.891444580151868 -179.970066435717 0.0230249935921736 0.934146966121174 
! Gamma         64.2763282125704 2081.15041513389 64.1682001816915 2079.32814780919 
! Port Impedance         50               0                50               0                
44                             0.0296948727841662 28.7987303103287 0.88935903641504 175.778727078205 0.889359036415041 175.778727078205 0.0276314749782505 31.3806591900288 
! Gamma         65.5998892401835 2129.45248379274 65.4890339225361 2127.58958054179 
! Port Impedance         50               0                50               0                
45                             0.0398023137204487 44.4481564974019 0.887071381545661 171.528829279296 0.887071381545661 171.528829279296 0.0384006832658146 46.983693330952  
! Gamma         66.9207628759766 2177.76108796552 66.8071911148606 2175.85759010493 
! Port Impedance         50               0                50               0                
46                             0.0523549098581174 51.2851025134053 0.8845890465088  167.282181321583 0.884589046508799 167.282181321583 0.0513711703881155 53.2155117304371 
! Gamma         68.2391409454141 2226.07657359957 68.1228628320702 2224.13252408492 
! Port Impedance         50               0                50               0                
47                             0.0657097987211928 53.7090414075497 0.881923942467053 163.0406338348   0.881923942467053 163.0406338348   0.0649767036090341 55.1228855938163 
! Gamma         69.5552065000593 2274.3992718331  69.4362315371944 2272.4147153067  
! Port Impedance         50               0                50               0                
48                             0.0791889801279584 53.8669772609717 0.879092069977726 158.805904601629 0.879092069977726 158.805904601629 0.0786115712265707 54.8932311017019 
! Gamma         70.8691338980555 2322.72950072706 70.747471148732  2320.70448356031 
! Port Impedance         50               0                50               0                
49                             0.0924611900261659 52.7595070989255 0.876113025259418 154.579540579134 0.876113025259418 154.579540579134 0.0919833301522213 53.4930542693087 
! Gamma         72.1810889706044 2371.06756684175 72.0567471907275 2369.0021371718  
! Port Impedance         50               0                50               0                
50                             0.105331642999511 50.8901084966958 0.873009425060708 150.362885259437 0.873009425060708 150.362885259437 0.10491782201646 51.395879495616  
! Gamma         73.4912292410357 2419.41376666932 73.3642170080358 2417.3079744098  
! Port Impedance         50               0                50               0                
51                             0.117668129337778 48.5341888490622 0.869806274006302 146.157052101549 0.869806274006301 146.157052101549 0.11729443223986 48.8569253267413 
! Gamma         74.7997042069914 2467.7683879083  74.6700300285508 2465.62228476454 
! Port Impedance         50               0                50               0                
52                             0.129371919995394 45.85360110664   0.866530299000349 141.962904500088 0.86653029900035 141.962904500088 0.129021364963672 46.0248516722442 
! Gamma         76.106655646889  2516.13171061288 75.9743280632686 2513.94535010797 
! Port Impedance         50               0                50               0                
53                             0.14036497716053 42.9492374899823 0.863209274450617 137.781042477219 0.863209274450617 137.781042477219 0.140024966738991 42.9917981727472 
! Gamma         77.412217958686  2564.50400824383 77.2772456326201 2562.27744571162 
! Port Impedance         50               0                50               0                
54                             0.150583741309677 39.887092140562  0.859871359958358 133.611796036566 0.859871359958358 133.611796036566 0.150244589573385 39.8177962087682 
! Gamma         78.7165185063646 2612.88554859575 78.5789103053602 2610.61884119661 
! Port Impedance         50               0                50               0                
55                             0.159975806061084 36.7120733427782 0.856544469029085 129.455224898586 0.856544469029085 129.455224898586 0.159629844546326 36.5435740843815 
! Gamma         80.0196779842133 2661.2765946327  79.8794430518021 2658.9698013605  
! Port Impedance         50               0                50               0                
56                             0.168497949948186 33.4557600710115 0.853255683667128 125.311124161612 0.853255683667128 125.311124161612 0.168138960869106 33.1976975364468 
! Gamma         81.3218107743379 2709.67740526325 81.178958597955  2707.33058694305 
! Port Impedance         50               0                50               0                
57                             0.176114843226448 30.1409825010709 0.850030725782003 121.179035306903 0.850030725782003 121.179035306903 0.175737686040983 29.800765701797  
! Gamma         82.6230253139839 2758.08823599008 82.4775657787219 2755.70145529248 
! Port Impedance         50               0                50               0                
58                             0.182798110475406 26.7846501665559 0.846893492500155 117.058261883437 0.846893492500155 117.058261883437 0.182398467038289 26.3679930598569 
! Gamma         83.9234244474662 2806.50933954008 83.7753678885617 2804.08266099063 
! Port Impedance         50               0                50               0                
59                             0.188525595508701 23.3995707222044 0.843865658980854 112.94788917747  0.843865658980855 112.94788917747  0.188099790291969 22.9108662551473 
! Gamma         85.2231057749667 2854.94096641733 85.0724630229032 2852.474456403   
! Port Impedance         50               0                50               0                
60                             0.193280754733778 19.9956658362264 0.840966349399359 108.846807166223 0.840966349399359 108.846807166223 0.192825623789957 19.4382505982839 
! Gamma         86.522161994104  2903.38336538255 86.3689444152133 2900.8770921651  
! Port Impedance         50               0                50               0                
61                             0.197052144742019 16.5808163436484 0.83821187445146 104.753736090868 0.838211874451459 104.753736090868 0.19656493690786 15.9571592481389 
! Gamma         87.8206812224015 2951.83678392005 87.6649007533627 2949.29081764839 
! Port Impedance         50               0                50               0                
62                             0.199832989702433 13.1614744858769 0.835615532134573 100.66725402948  0.835615532134572 100.66725402948  0.199311289315804 12.4733111704359 
! Gamma         89.1187473173105 3000.30146863378 88.9604164957567 2997.71588136111 
! Port Impedance         50               0                50               0                
63                             0.201620823932694 9.74312838803793 0.833187467596992 96.5858259133095 0.833187467596993 96.5858259133095 0.201062487792844 8.99155554526175 
! Gamma         90.4164401755816 3048.77766560756 90.2555721681835 3046.15253132029 
! Port Impedance         50               0                50               0                
64                             0.202417209346965 6.3306736912517  0.830934587499916 92.5078334930626 0.830934587499916 92.5078334930627 0.201820312750134 5.51621269687786 
! Gamma         91.7138360220298 3097.26562075807 91.5504446492931 3094.60101538368 
! Port Impedance         50               0                50               0                
65                             0.202227529081293 2.92872978986468 0.828860524463847 88.4316058225724 0.828860524463847 88.4316058225723 0.201590316999724 2.05136569642288 
! Gamma         93.0110076842318 3145.765580125   92.8451074423711 3143.06158157057 
! Port Impedance         50               0                50               0                
66                             0.201060858662037 -0.458071768134243 0.826965647690245 84.3554498793841 0.826965647690245 84.3554498793841 0.200381698813579 -1.39887212898084 
! Gamma         94.3080248575514 3194.27779015155 94.1396309351643 3191.53447833271 
! Port Impedance         50               0                50               0                
67                             0.198929915575362 -3.82480414744234 0.825247116606854 80.2776809805839 0.825247116606853 80.2776809805839 0.1982072504034  -4.83009296969893 
! Gamma         95.6049543473598 3242.80249795621 95.4340826464986 3240.0199548213  
! Port Impedance         50               0                50               0                
68                             0.195851087414344 -7.1659462171998 0.823698975283129 76.1966526785016 0.823698975283128 76.1966526785016 0.195083381931017 -8.23731387064767 
! Gamma         96.9018603087033 3291.3399515544  96.7285274599536 3288.51826112641 
! Port Impedance         50               0                50               0                
69                             0.191844538466899 -10.4750448165131 0.822312286254604 72.1107858289219 0.822312286254604 72.1107858289219 0.191030220526764 -11.614658078193 
! Gamma         98.1988044689992 3339.89040008477 98.0230278441232 3337.0296485057  
! Port Impedance         50               0                50               0                
70                             0.186934395003921 -13.7443103550463 0.82107530319073 68.0185965228219 0.82107530319073 68.0185965228219 0.186071783822104 -14.9549717315383 
! Gamma         99.4958463355724 3388.45409402278 99.3176440636991 3385.55436958644 
! Port Impedance         50               0                50               0                
71                             0.181149011285722 -16.9641082990095 0.819973682427945 63.9187225527989 0.819973682427945 63.9187225527989 0.180236228779641 -18.2493398178621 
! Gamma         100.793043398548 3437.03128536701 100.612434377616 3434.0926785684  
! Port Impedance         50               0                50               0                
72                             0.17452132230401 -20.1222930738607 0.818990733685568 59.8099480626726 0.818990733685568 59.8099480626727 0.173556179941277 -21.4864494569109 
! Gamma         102.090451316361 3485.6222278246  101.907455226438 3482.64483141745 
! Port Impedance         50               0                50               0                
73                             0.167089297049262 -23.2033046237359 0.818107710219962 55.6912259947472 0.818107710219963 55.6912259947472 0.166069147995225 -24.6517224124125 
! Gamma         103.388124093155 3534.22717699639 103.202761408856 3531.211086032   
! Port Impedance         50               0                50               0                
74                             0.158896520306763 -26.1869045210554 0.81730413820132 51.561697921546  0.81730413820132 51.5616979215459 0.157818062260897 -27.7260953025132 
! Gamma         104.68611424844  3582.84639053131 104.498406249727 3579.79170242766 
! Port Impedance         50               0                50               0                
75                             0.149992956451255 -29.0463560176808 0.816558184195006 47.4207108233561 0.816558184195006 47.4207108233561 0.148851963801287 -30.6842525819125 
! Gamma         105.984472975232 3631.48012830359 105.794441760132 3628.38694289998 
! Port Impedance         50               0                50               0                
76                             0.140435994383923 -31.7457285175374 0.815847058313641 43.2678303613234 0.815847058313641 43.2678303613234 0.139226947844641 -33.4919903249633 
! Gamma         107.283250286653 3680.12865255895 107.090918785473 3676.99707217905 
! Port Impedance         50               0                50               0                
77                             0.130291956015058 -34.2357900370001 0.81514744892404 39.1028502020025 0.815147448924039 39.1028502020025 0.129007521681551 -36.1021627627589 
! Gamma         108.582495163487 3728.79222809077 108.38788714818  3725.62235760588 
! Port Impedance         50               0                50               0                
78                             0.119638406623466 -36.4475621880042 0.81443598281642 34.9257969796531 0.81443598281642 34.9257969796532 0.118268691492368 -38.4482491777093 
! Gamma         109.882255681993 3777.47112236842 109.685395783276 3774.26306927289 
! Port Impedance         50               0                50               0                
79                             0.108567906836046 -38.2818992633305 0.813689702632437 30.7369305412065 0.813689702632437 30.7369305412065 0.107099381545193 -40.4337969296643 
! Gamma         111.18257914628  3826.16560570884 110.983492864831 3822.91948019134 
! Port Impedance         50               0                50               0                
80                             0.097194450553624 -39.5921316220389 0.81288655123527 26.5367392065727 0.81288655123527 26.5367392065727 0.0956083853685636 -41.9144849849806 
! Gamma         112.483512205168 3874.87595143086 112.282225928107 3871.59186644327 
! Port Impedance         50               0                50               0                
81                             0.0856650882244313 -40.1544044610305 0.812005850805533 22.3259298971867 0.812005850805533 22.3259298971867 0.0839353289346609 -42.6666076530207 
! Gamma         113.785100970742 3923.60243599225 113.581641985921 3920.28050734053 
! Port Impedance         50               0                50               0                
82                             0.0741818977535866 -39.6163794729496 0.811028762950446 18.1054131317613 0.811028762950445 18.1054131317613 0.0722719823134367 -42.3302787542854 
! Gamma         115.08739112384  3972.34533916326 114.881787637789 3968.98568558458 
! Port Impedance         50               0                50               0                
83                             0.0630449942996636 -37.4111813208416 0.80993871522819 13.8762830590771 0.80993871522819 13.8762830590771 0.0609056901443091 -40.3075660155206 
! Gamma         116.390428021878 4021.10494417419 116.182709175745 4017.70768742294 
! Port Impedance         50               0                50               0                