! Touchstone file exported from HFSS 2024.2.0
!        File:           C:/Users/vaintrug/Documents/Ansoft_Workspace/Comparaison_Calculs_HFSS/1_VarPort.aedt
!        Generated:      03:22:18 PM Jan 21, 2025
!        Design:         1_NoDeembed_FacePortFree
!        Project:        1_VarPort
!        Setup:          Setup1
!        Solution:       Sweep
!
! Variables:
!        $Lenght = 2000um
!        $PortSize = 230um
!        Gap = 30um
!        Th = 2um
!        X_centralStrip = 20um
!        X_masse = 200um
!        Y_Sub = 2mm
!        Z_Box = 400um
!        Z_Sub = 200um
!
# GHz S MA R 50.000000
! Terminal data exported
! Port[1] = 1
! Port[2] = 2
1                              0.0276796165037907 61.2845677049314 0.985448448747107 -5.89473463835238 0.985448448747106 -5.89473463835238 0.0276809705118646 61.2981125496154 
! Gamma         5.95414650766567 50.0339571593922 5.81633623382005 49.871652457964  
! Port Impedance         50               0                50               0                
2                              0.0493702484287865 66.8345687415893 0.981929495307886 -11.6560456756629 0.981929495307885 -11.6560456756629 0.0493802845041454 66.8538707430814 
! Gamma         7.72227935845982 98.7071649051833 7.55420918579919 98.4297541294961 
! Port Impedance         50               0                50               0                
3                              0.0712923551157482 65.7614809652086 0.978340076869524 -17.4184091046949 0.978340076869524 -17.4184091046949 0.0713135824128944 65.7827895799802 
! Gamma         9.13938962140559 147.420348642787 8.95394324940301 147.032990456004 
! Port Impedance         50               0                50               0                
4                              0.0926752777636845 62.5076339103706 0.974329397851701 -23.171301295899 0.974329397851702 -23.171301295899 0.0927082677040445 62.5304045755395 
! Gamma         10.4717005752709 196.200519493933 10.2754490692853 195.700835229336 
! Port Impedance         50               0                50               0                
5                              0.113080439751592 58.313298950611  0.969884612532464 -28.9054999106651 0.969884612532464 -28.9054999106651 0.113125473959268 58.3373178492417 
! Gamma         11.7944105453124 245.012664645908 11.5893147990149 244.398304858975 
! Port Impedance         50               0                50               0                
6                              0.13221082483137 53.6514752457455 0.96507308687579 -34.6146873867569 0.96507308687579 -34.6146873867569 0.13226809687533 53.6763367385628 
! Gamma         13.1300640677695 293.834124146095 12.916370662719  293.103714910473 
! Port Impedance         50               0                50               0                
7                              0.149842795752846 48.7398693192292 0.95999062998736 -40.2946480275688 0.95999062998736 -40.2946480275688 0.149912361928052 48.7649124870129 
! Gamma         14.4855209285653 342.651674140579 14.2628833783028 341.804578502603 
! Port Impedance         50               0                50               0                
8                              0.165802455859766 43.6922090837033 0.954744113060467 -45.9429117882026 0.954744113060467 -45.9429117882026 0.16588415376989 43.7165184305157 
! Gamma         15.8620319900664 391.457274081995 15.6299275382679 390.493327514163 
! Port Impedance         50               0                50               0                
9                              0.179955384622947 38.5732883895053 0.949442294683769 -51.5585678313771 0.949442294683769 -51.5585678313772 0.180048755992411 38.5956934665111 
! Gamma         17.2585269838167 440.245854025824 17.0164155548296 439.165187379392 
! Port Impedance         50               0                50               0                
10                             0.192200541589363 33.4222288137506 0.944189625843763 -57.1421123588242 0.944189625843762 -57.1421123588242 0.192304764588741 33.4412927232017 
! Gamma         18.6728962855825 489.01420647645  18.4202818183667 487.8171359194   
! Port Impedance         50               0                50               0                
11                             0.202465538965187 28.2635293640441 0.939081737049634 -62.6952875393545 0.939081737049634 -62.6952875393545 0.202579369507189 28.2775250059703 
! Gamma         20.1025766595971 537.760393447481 19.8390297246832 536.447351672845 
! Port Impedance         50               0                50               0                
12                             0.210702477181918 23.1128593744323 0.934202191795358 -68.220903082067 0.934202191795358 -68.220903082067 0.210824197362074 23.1197327285557 
! Gamma         21.544856325308  586.483397433285 21.2700207653665 585.05488922313  
! Port Impedance         50               0                50               0                
13                             0.216884197455689 17.980382191617  0.929620292266332 -73.7226440510532 0.929620292266331 -73.7226440510533 0.217011568815621 17.9777009702338 
! Gamma         22.9970495312547 635.182893871852 22.7106421252927 633.639466258963 
! Port Impedance         50               0                50               0                
14                             0.221001010106986 12.8728399054631 0.925389762391618 -79.2048717994632 0.925389762391618 -79.2048717994632 0.221131228947673 12.8577244610904 
! Gamma         24.4566014818507 683.859088736209 24.1584084445021 682.201310014787 
! Port Impedance         50               0                50               0                
15                             0.223057997050515 7.79498994752032 0.921548142500903 -84.67242460397  0.921548142500904 -84.67242460397  0.223187648400621 7.7640214536698  
! Gamma         25.9211514645516 732.512593998621 25.6110234046662 730.741038729329 
! Port Impedance         50               0                50               0                
16                             0.223072965265231 2.75070332918314 0.918116743893956 -90.1304231208693 0.918116743893955 -90.1304231208693 0.223197971220831 2.69980190562899 
! Gamma         27.3885684618515 781.144328014771 27.0664146582112 779.259565905094 
! Port Impedance         50               0                50               0                
17                             0.221075089822726 -2.25609264860744 0.915101035726169 -95.5840841134607 0.91510103572617 -95.5840841134607 0.221190646511485 -2.33183088025089 
! Gamma         28.8569677493223 829.755433761116 28.5227501047403 827.758021479542 
! Port Impedance         50               0                50               0                
18                             0.217104246635559 -7.22049792334704 0.912491367807873 -101.038544564733 0.912491367807873 -101.038544564733 0.217204741743349 -7.32702111908145 
! Gamma         30.3247139708164 878.347211341053 29.9784409376778 876.237686487987 
! Port Impedance         50               0                50               0                
19                             0.211211003514516 -12.1356310480764 0.910263966175028 -106.49869748543 0.910263966175027 -106.49869748543 0.211289902430786 -12.280233968351 
! Gamma         31.7904146893579 926.921062345474 31.4321352879728 924.699939122339 
! Port Impedance         50               0                50               0                
20                             0.203457216912637 -16.9913866023968 0.908382168811335 -111.969040417283 0.908382168811336 -111.969040417283 0.203506899030688 -17.1831331995164 
! Gamma         33.2529074116072 975.478444492186 32.8827055195022 973.146210698645 
! Port Impedance         50               0                50               0                
21                             0.193917172718311 -21.7727506979021 0.906797893385406 -117.453537828301 0.906797893385406 -117.453537828301 0.193928688190494 -22.0230775981473 
! Gamma         34.7112424316574 1024.02083518396 34.3292313484424 1021.5779503424  
! Port Impedance         50               0                50               0                
22                             0.182679221077053 -26.4573289253022 0.905453344441882 -122.955499123836 0.905453344441882 -122.955499123836 0.182641918438745 -26.7809287573402 
! Gamma         36.1646632361248 1072.54970287212 35.7709806483064 1069.99659721711 
! Port Impedance         50               0                50               0                
23                             0.169847904582779 -31.0114632292475 0.904282972631266 -128.477474690613 0.904282972631266 -128.477474690613 0.169748843091629 -31.4276145966132 
! Gamma         37.6125858630676 1121.06648505036 37.2073892228639 1118.40355921665 
! Port Impedance         50               0                50               0                
24                             0.155546707938405 -35.3837371896433 0.903215692585466 -134.02117313205 0.903215692585467 -134.02117313205 0.155369698153289 -35.9183722503733 
! Gamma         39.0545782247077 1169.57257194127 38.6380405386427 1166.80019724407 
! Port Impedance         50               0                50               0                
25                             0.139921869142762 -39.4934048171265 0.902177349038594 -139.587403402813 0.902177349038594 -139.587403402813 0.139645842527303 -40.1824398334184 
! Gamma         40.4903400651307 1218.06929495054 40.0626461372846 1215.18781407751 
! Port Impedance         50               0                50               0                
26                             0.123148459143437 -43.2083080104285 0.901093394397662 -145.176045744472 0.901093394397662 -145.176045744472 0.122744558578235 -44.1032138479068 
! Gamma         41.9196841018272 1266.55791895126 41.4810271960509 1263.56764704943 
! Port Impedance         50               0                50               0                
27                             0.105441955310202 -46.2992611220836 0.899891708163661 -150.786055044564 0.899891708163661 -150.786055044564 0.104868019827821 -47.4766968550752 
! Gamma         43.3425185964138 1315.03963782183 42.8930975297911 1311.94086376645 
! Port Impedance         50               0                50               0                
28                             0.0870844365412622 -48.3364935853545 0.898505453781503 -156.415499330231 0.898505453781504 -156.415499330231 0.0862737484911591 -49.9150542494766 
! Gamma         44.7588315659565 1363.51557240124 44.2988481751606 1360.30856028501 
! Port Impedance         50               0                50               0                
29                             0.0684943293067725 -48.4266435175376 0.896875837448138 -162.061634592237 0.896875837448139 -162.061634592237 0.0673306954154373 -50.5919819372939 
! Gamma         46.1686766529065 1411.98677043295 45.6983336444778 1408.671761156   
! Port Impedance         50               0                50               0                
30                             0.0504465127759609 -44.4628014409306 0.894954612214995 -167.721015064575 0.894954612214994 -167.721015064575 0.0487064717101783 -47.4575961903142 
! Gamma         47.5721606563899 1460.45420795755 47.0916597969925 1457.03142086513 
! Port Impedance         50               0                50               0                
31                             0.0348857408323147 -31.0234233681628 0.892706164947865 -173.389635665065 0.892706164947864 -173.389635665065 0.032150279149334 -34.5570032310974 
! Gamma         48.9694326567633 1508.91879178602 48.4789732564481 1505.38842635264 
! Port Impedance         50               0                50               0                
32                             0.0273352298279816 0.265416790485955 0.890109036950115 -179.063100791177 0.890109036950114 -179.063100791177 0.0236028618001658 0.545794450277003 
! Gamma         50.3606746123109 1557.38136273159 49.860452296438  1553.7436001978  
! Port Impedance         50               0                50               0                
33                             0.0337478854434356 32.755463922799  0.887156761937053 175.263188577746 0.887156761937053 175.263188577746 0.0307643781107988 37.5956838822037 
! Gamma         51.7460933195209 1605.84269932015 51.2362990421659 1602.09770432324 
! Port Impedance         50               0                50               0                
34                             0.0485789414264973 47.30066953764   0.883857954592901 169.593839189408 0.883857954592901 169.593839189408 0.0465787728924355 51.9339845727034 
! Gamma         53.1259136086265 1654.3035218166  52.6067328823316 1650.45144393573 
! Port Impedance         50               0                50               0                
35                             0.0659115768976194 51.771780979542  0.88023564288643 163.93327177976  0.880235642886431 163.93327177976  0.064502265916455 55.639188078165  
! Gamma         54.5003726186898 1702.76449637975 53.9719849293955 1698.80547161227 
! Port Impedance         50               0                50               0                
36                             0.083645088759066 51.9619543859048 0.876325899244876 158.285539676236 0.876325899244876 158.285539676236 0.0826035441252015 55.2569192330728 
! Gamma         55.8697150512999 1751.22623920321 55.3322934357057 1747.16039138664 
! Port Impedance         50               0                50               0                
37                             0.100976033998782 50.1283250293878 0.87217588069332 152.654169017358 0.872175880693319 152.654169017358 0.100186139683248 53.0246390044746 
! Gamma         57.234189256621  1799.68932061577 56.6879000234642 1795.5167627265  
! Port Impedance         50               0                50               0                
38                             0.117493696217108 47.2194193490594 0.86784142868429 147.042027969258 0.86784142868429 147.042027969258 0.116889305063837 49.8314900007792 
! Gamma         58.5940440500836 1848.1542690276  58.039046612161  1843.87510440166 
! Port Impedance         50               0                50               0                
39                             0.132937111502834 43.688283188538  0.863384400979601 141.451229894143 0.863384400979602 141.451229894143 0.132476653294343 46.0906137746962 
! Gamma         59.949526162901  1896.62157467977 59.3859729674195 1892.23589815115 
! Port Impedance         50               0                50               0                
40                             0.147118801205036 39.775691767987  0.85886990955963 135.883072843711 0.85886990955963 135.883072843711 0.146773714544781 42.0182227855721 
! Gamma         61.3008782136717 1945.09169319826 60.7289147545479 1940.59959214542 
! Port Impedance         50               0                50               0                
41                             0.159896200823987 35.6207042052646 0.854363622496168 130.33801527945  0.854363622496167 130.33801527945  0.159645233262494 37.7380035350719 
! Gamma         62.6483371430239 1993.56504890908 62.0681020394479 1988.96660419937 
! Port Impedance         50               0                50               0                
42                             0.17115899163033 31.3090175935661 0.849929258835256 124.815685866513 0.849929258835256 124.815685866513 0.170985173750176 33.3256764175212 
! Gamma         63.992133022732  2042.04203791155 63.4037581493848 2037.33732478514 
! Port Impedance         50               0                50               0                
43                             0.180822419907149 26.8962584133309 0.845626369774908 119.314923657793 0.845626369774908 119.314923657793 0.180711353807408 28.8301337675599 
! Gamma         65.3324881811674 2090.52303093001 64.7360988466337 2085.71211977859 
! Port Impedance         50               0                50               0                
44                             0.188823120264796 22.4201571909343 0.841508462623326 113.833844066854 0.841508462623326 113.833844066854 0.188761957971732 24.2843808160599 
! Gamma         66.6696165997809 2139.00837591175 66.0653317429424 2134.0913330119  
! Port Impedance         50               0                50               0                
45                             0.19511612795026 17.9073902505262 0.837621490996748 108.369925661791 0.837621490996748 108.369925661791 0.195092931666785 19.7116478037644 
! Gamma         68.0037235173421 2187.49840041911 67.3916559412066 2182.47528857096 
! Port Impedance         50               0                50               0                
46                             0.199672575356217 13.3777001770699 0.834002708569497 102.920112887969 0.834002708569497 102.920112887969 0.199675897504253 15.1290619698742 
! Gamma         69.3350052159098 2235.99341380914 68.7152618315169 2230.86429292489 
! Port Impedance         50               0                50               0                
47                             0.202477889995008 8.84656541106053 0.830679865955455 97.4809302294659 0.830679865955456 97.4809302294659 0.202496482654007 10.5500295225538 
! Gamma         70.6636489513367 2284.49370919422 70.0363310364023 2279.25863681952 
! Port Impedance         50               0                50               0                
48                             0.203530440685693 4.32708267802556 0.827670720968092 92.048603875329  0.827670720968092 92.048603875329  0.203553040858124 5.98592434117471 
! Gamma         71.9898329930351 2332.99956523488 71.3550364519362 2327.65859702528 
! Port Impedance         50               0                50               0                
49                             0.202840627204761 -0.168561486181081 0.8249828305208  86.6191875422771 0.824982830520801 86.6191875422771 0.20285578372926 1.44742085970775 
! Gamma         73.3137267575864 2381.51124776305 72.6715423911129 2376.06443789589 
! Port Impedance         50               0                50               0                
50                             0.200430422623864 -4.62779043334847 0.822613596087029 81.1886896287979 0.822613596087029 81.1886896287979 0.200426340439174 -3.05431301995866 
! Gamma         74.6354910146477 2430.0290112153  73.9860047823063 2424.47641277021 
! Port Impedance         50               0                50               0                
51                             0.196333378588345 -9.03632545324422 0.820550541884522 75.7531992364217 0.820550541884522 75.7531992364217 0.196297760110603 -7.50639593530761 
! Gamma         75.955278141979  2478.55309996023 75.298571423415  2472.89476525079 
! Port Impedance         50               0                50               0                
52                             0.190595103662925 -13.3766843316769 0.818771813678573 70.3090087783288 0.818771813678573 70.3090087783288 0.190514966733865 -11.8928199140127 
! Gamma         77.2732324205789 2527.08374946236 76.6093822726999 2521.31973033449 
! Port Impedance         50               0                50               0                
53                             0.183274232904553 -17.6262706194105 0.817246894297785 64.8527308812897 0.817246894297785 64.8527308812897 0.183135680173201 -16.1926343226383 
! Gamma         78.5894903618046 2575.62118733247 77.9185697686736 2569.75153542384 
! Port Impedance         50               0                50               0                
54                             0.174443934742746 -21.7547306526726 0.815937537815574 59.3814071121303 0.815937537815574 59.3814071121303 0.174231839354106 -20.3774134056545 
! Gamma         79.9041810481067 2624.16563428131 79.2262591616578 2618.19040124731 
! Port Impedance         50               0                50               0                
55                             0.164194069810444 -25.7200508413622 0.8147989263301  53.8926057580894 0.814798926330099 53.8926057580894 0.163891624135391 -24.4074884832136 
! Gamma         81.2174264884105 2672.71730494449 80.532568858201  2666.6365426757  
! Port Impedance         50               0                50               0                
56                             0.152634266798634 -29.4624741459211 0.813781050259016 48.3845055693929 0.813781050259016 48.3845055693929 0.152222309514709 -28.2260268418886 
! Gamma         82.5293419745999 2721.2764086394  81.8376107735289 2715.09016944117 
! Port Impedance         50               0                50               0                
57                             0.139898501973949 -32.8945446467947 0.812830304425525 42.8559620988307 0.812830304425525 42.8559620988307 0.139354485021279 -31.7492466163085 
! Gamma         83.8400364424907 2769.84315004582 83.1414906767441 2763.55148678272 
! Port Impedance         50               0                50               0                
58                             0.126152464308292 -35.88403689781  0.811891278101537 37.3065531738861 0.811891278101537 37.3065531738861 0.125448831015958 -34.8494226577222 
! Gamma         85.1496128240312 2818.41772978633 84.444308537582  2812.02069603544 
! Port Impedance         50               0                50               0                
59                             0.111606545724321 -38.2233065114862 0.810908698530809 31.7366002108607 0.81090869853081 31.7366002108607 0.110708151954639 -37.3238328240987 
! Gamma         86.4581683955071 2867.00034496309 85.7461588597646 2860.49799513526 
! Port Impedance         50               0                50               0                
60                             0.0965409498350592 -39.5718586139169 0.809829466228265 26.1471626117623 0.809829466228265 26.1471626117623 0.0954010131572419 -38.8350542914592 
! Gamma         87.7657951160844 2915.5911896319  87.0471310132097 2908.98357907377 
! Port Impedance         50               0                50               0                
61                             0.0813583409203452 -39.3457430716747 0.808604699356459 20.5400034266341 0.808604699356458 20.5400034266341 0.0799126607175616 -38.7912406749227 
! Gamma         89.0725799510497 2964.19045521866 88.3473095458782 2957.47764030798 
! Port Impedance         50               0                50               0                
62                             0.0667010952861961 -36.5112992394662 0.807191687134304 14.9175258043559 0.807191687134304 14.9175258043559 0.0648634230498507 -36.1062486677845 
! Gamma         90.3786051910739 3012.79833088621 89.6467744911622 3005.98036911991 
! Port Impedance         50               0                50               0                
63                             0.0537112512276291 -29.3024952744844 0.805555642109761 9.28268141607513 0.80555564210976 9.28268141607514 0.0513909275932426 -28.8072896547579 
! Gamma         91.683948748818  3061.4150038744  90.9456016591887 3054.49195393191 
! Port Impedance         50               0                50               0                
64                             0.0444706365366398 -15.5457786004162 0.803671141181706 3.63885388940897 0.803671141181706 3.63885388940897 0.0416987054864622 -14.1776054736427 
! Gamma         92.9886844481892 3110.04065977787 92.2438629137584 3103.01258158971 
! Port Impedance         50               0                50               0                
65                             0.041849820946485 3.90440209848578 0.80152315725819 -2.01027788473066 0.801523157258189 -2.01027788473066 0.0390513988434273 7.14559320681816 
! Gamma         94.2928822970466 3158.67548281601 93.5416264375424 3151.54243761303 
! Port Impedance         50               0                50               0                
66                             0.0469315259706537 21.8056511011411 0.799107607260529 -7.66089011335427 0.79910760726053 -7.66089011335427 0.0446780457030077 26.3942935897661 
! Gamma         95.5966087459747 3207.3196560565  94.8389569817171 3200.08170642167 
! Port Impedance         50               0                50               0                
67                             0.0574460268095037 32.9694998675169 0.79643137571601 -13.3091705413176 0.79643137571601 -13.3091705413176 0.055864324134331 37.7738880966329 
! Gamma         96.8999269335167 3255.97336161261 96.1359161033849 3248.6305715242  
! Port Impedance         50               0                50               0                
68                             0.070619544786726 38.3363837849729 0.793511812454544 -18.9514728537549 0.793511812454544 -18.9514728537549 0.0695835016396579 42.9233427513642 
! Gamma         98.202896916917  3304.63678082955 97.4325623903821 3297.18921569549 
! Port Impedance         50               0                50               0                
69                             0.0847613831439152 40.093288392135  0.790375742869351 -24.5844610998851 0.790375742869351 -24.5844610998851 0.0841378899439817 44.4109349733432 
! Gamma         99.5055758917218 3353.31009443979 98.7289516709679 3345.75782112422 
! Port Impedance         50               0                50               0                
70                             0.0989666541391257 39.7091350960672 0.787058064565866 -30.2052370411617 0.787058064565866 -30.2052370411617 0.0986611999415359 43.7990494936093 
! Gamma         100.808018394894 3401.99348269776 100.025137211021 3394.33656955979 
! Port Impedance         50               0                50               0                
71                             0.112718462900449 38.0202762419128 0.783600030621451 -35.8114447230197 0.783600030621451 -35.8114447230197 0.112666995507872 41.933403507037  
! Gamma         102.110276497151 3450.68712550591 101.321169902221 3442.92564241585 
! Port Impedance         50               0                50               0                
72                             0.125689541010991 35.5036411444873 0.7800473343989  -41.4013483277706 0.780047334398901 -41.4013483277706 0.125847354546197 39.2828630371992 
! Gamma         103.412399985156 3499.39120252478 102.617098434979 3491.52522089081 
! Port Impedance         50               0                50               0                
73                             0.137654259669048 32.4425098931038 0.776448113209245 -46.9738812754799 0.776448113209245 -46.9738812754799 0.137988574404375 36.1213021972463 
! Gamma         104.714436529314 3548.10589326359 103.912969462331 3540.13548604944 
! Port Impedance         50               0                50               0                
74                             0.148448299026045 29.0132370863562 0.772850979390528 -52.5286663578952 0.772850979390528 -52.5286663578952 0.148933784390905 32.61746588522   
! Gamma         106.016431841077 3596.83137717173 105.20882775141  3588.75661891792 
! Port Impedance         50               0                50               0                
75                             0.157948751944778 25.3306103969665 0.76930317029098 -58.0660082736833 0.769303170290979 -58.0660082736832 0.158564844917197 28.8804811469118 
! Gamma         107.31842982282  3645.56783370815 106.504716329141 3637.38880054551 
! Port Impedance         50               0                50               0                
76                             0.166063400827203 21.472448384887  0.765848886714136 -63.5868611418669 0.765848886714137 -63.586861141867 0.166792673952435 24.9840479214655 
! Gamma         108.620472703512 3694.31544241057 107.800676611588 3686.03221207768 
! Port Impedance         50               0                50               0                
77                             0.17272436908256 17.4935651059551 0.762527866134197 -69.092774371398 0.762527866134197 -69.0927743713981 0.173551517883508 20.9799936326156 
! Gamma         109.922601168797 3743.074382955   109.096748531518 3734.6870348086  
! Port Impedance         50               0                50               0                
78                             0.177884018103668 13.4340931762709 0.759374215413665 -74.5858206787528 0.759374215413665 -74.5858206787528 0.178795223445861 16.9062832263572 
! Gamma         111.224854480565 3791.84483520494 110.392970652887 3783.35345023949 
! Port Impedance         50               0                50               0                
79                             0.181512114153473 9.32470676069883 0.756415509941981 -80.0685101211526 0.75641550994198 -80.0685101211526 0.182494639063346 12.7920210823214 
! Gamma         112.527270588369 3840.62697926161 111.689380278939 3832.03164011711 
! Port Impedance         50               0                50               0                
80                             0.183593809907771 5.19009482522984 0.753672153216432 -85.5436938598436 0.753672153216432 -85.5436938598436 0.184635748827079 8.66077264003481 
! Gamma         113.829886233756 3889.42099550539 112.986013552519 3880.72178648522 
! Port Impedance         50               0                50               0                
81                             0.184128227587186 1.05143912487778 0.75115698305138 -91.0144610635199 0.75115698305138 -91.0144610635199 0.185218359861271 4.53294024991703 
! Gamma         115.132737047888 3938.22706463292 114.282905549832 3929.4240717137  
! Port Impedance         50               0                50               0                
82                             0.183127544893255 -3.071653106856  0.748875107374592 -96.4840320189727 0.748875107374591 -96.4840320189727 0.184255264688088 0.427628930645536 
! Gamma         116.435857639106 3987.04536769404 115.580090368399 3978.13867853788 
! Port Impedance         50               0                50               0                
83                             0.180616539782571 -7.15946561158286 0.746823952893437 -101.955650189073 0.746823952893437 -101.955650189073 0.181771847716069 -3.63571122934296 
! Gamma         117.739281679614 4035.87608612029 116.877601205931 4026.86579008986 
! Port Impedance         50               0                50               0                