! Touchstone file exported from HFSS 2024.2.0
!        File:           C:/Users/vaintrug/Documents/Ansoft_Workspace/Comparaison_Calculs_HFSS/1_VarPort.aedt
!        Generated:      03:22:16 PM Jan 21, 2025
!        Design:         1_NoDeembed_FacePortFree
!        Project:        1_VarPort
!        Setup:          Setup1
!        Solution:       Sweep
!
! Variables:
!        $Lenght = 1500um
!        $PortSize = 110um
!        Gap = 30um
!        Th = 2um
!        X_centralStrip = 20um
!        X_masse = 200um
!        Y_Sub = 1.5mm
!        Z_Box = 400um
!        Z_Sub = 200um
!
# GHz S MA R 50.000000
! Terminal data exported
! Port[1] = 1
! Port[2] = 2
1                              0.0205254305380411 62.2706431482065 0.989067621436641 -4.42961306044871 0.989067621436642 -4.42961306044871 0.0205274215140551 62.2613627263292 
! Gamma         5.79774125142501 50.2656221965384 5.74726129948481 49.8726799641601 
! Port Impedance         50               0                50               0                
2                              0.0365517223008755 69.3923297337059 0.986540928745135 -8.75734540153078 0.986540928745136 -8.75734540153077 0.036555467819275 69.3676455296294 
! Gamma         7.6478418009205  99.174110159971  7.50645863845016 98.4425199958948 
! Port Impedance         50               0                50               0                
3                              0.0529522620869227 69.848029591673  0.984073727571853 -13.089255001612 0.984073727571853 -13.089255001612 0.0529568730242858 69.8090523749994 
! Gamma         9.11895875890696 148.064613123136 8.92005709077864 147.036718973743 
! Port Impedance         50               0                50               0                
4                              0.069237461622786 68.0662334200764 0.981363423772826 -17.4196218016282 0.981363423772827 -17.4196218016282 0.0692421928524707 68.0131193057136 
! Gamma         10.4830947384761 197.01413059257  10.2470968416111 195.692223227278 
! Port Impedance         50               0                50               0                
5                              0.0851460852461871 65.3012465408295 0.978365024593138 -21.7428935119627 0.978365024593137 -21.7428935119627 0.085150164529518 65.2339318419381 
! Gamma         11.8269219844875 245.996498610486 11.5621881870348 244.377999126201 
! Port Impedance         50               0                50               0                
6                              0.100512203252162 62.0335776869668 0.975091442625647 -26.0552108475083 0.975091442625647 -26.0552108475083 0.100514859811747 61.9518959006692 
! Gamma         13.1784244160737 294.9901263002   12.8883508340249 293.072822882451 
! Port Impedance         50               0                50               0                
7                              0.115212705442358 58.4844447101302 0.97157535275731 -30.3537421834436 0.971575352757311 -30.3537421834436 0.11521317470999 58.3881506763764 
! Gamma         14.5470454179639 343.981501664316 14.2329038682656 341.764009163632 
! Port Impedance         50               0                50               0                
8                              0.129149039816196 54.7694907243423 0.96785842978625 -34.6363864060739 0.96785842978625 -34.6363864060739 0.12914655434702 54.6582701410088 
! Gamma         15.9353718696282 392.962114034558 15.5974589629532 390.443715777273 
! Port Impedance         50               0                50               0                
9                              0.142240026279963 50.9549572034608 0.963986828173188 -38.9016480447027 0.963986828173187 -38.9016480447027 0.142233802301983 50.8284310326821 
! Gamma         17.3430829511483 441.926456226241 16.9812311955577 439.106919048736 
! Port Impedance         50               0                50               0                
10                             0.154418493883435 47.0814084943104 0.960008551974911 -43.1485737997873 0.960008551974911 -43.1485737997873 0.154407717324477 46.9391343205283 
! Gamma         18.7685155125946 490.870943124612 18.3823418875145 487.750377999978 
! Port Impedance         50               0                50               0                
11                             0.165629324793148 43.1749151260535 0.955971594356849 -47.3767082109842 0.955971594356848 -47.3767082109842 0.165613138317056 43.0163861715107 
! Gamma         20.2093809307584 539.79331083434  19.7984165832123 536.372074113515 
! Port Impedance         50               0                50               0                
12                             0.17582803598009 39.2528062570421 0.95192250965593 -51.5860529974653 0.95192250965593 -51.5860529974653 0.175805527639798 39.0774484346121 
! Gamma         21.6631360174433 588.692257017367 21.2268973618383 584.970879792019 
! Port Impedance         50               0                50               0                
13                             0.184979577732044 35.3268510813984 0.947905299637611 -55.7770249915558 0.947905299637612 -55.7770249915558 0.184949771390159 35.1340181531155 
! Gamma         23.1271934527682 637.567205366896 22.665222070372  633.546341902097 
! Port Impedance         50               0                50               0                
14                             0.1930572379746  31.4051321709428 0.943960559665446 -59.9504117030038 0.943960559665446 -59.9504117030038 0.193019085387953 31.1940990530961 
! Gamma         24.5990480571913 686.41813789926  24.1109328753028 682.098526929477 
! Port Impedance         50               0                50               0                
15                             0.200041624623923 27.4932125763912 0.940124848223729 -64.1073250815288 0.940124848223728 -64.1073250815288 0.19999399889999 27.2631665752678 
! Gamma         26.0763537691459 735.245467063968 25.5617426273426 730.627902172548 
! Port Impedance         50               0                50               0                
16                             0.205919729222809 23.5949019635996 0.936430247488054 -68.2491545170886 0.936430247488054 -68.2491545170886 0.205861419249105 23.3449317599627 
! Gamma         27.5569689854545 784.049933612684 27.015573617437  779.135240239408 
! Port Impedance         50               0                50               0                
17                             0.210684084801729 19.7127854877277 0.932904083831007 -72.3775200709305 0.932904083831008 -72.3775200709305 0.210613790154662 19.4418674653634 
! Gamma         29.0389803746385 832.83252291123  28.4705771603184 827.621540371751 
! Port Impedance         50               0                50               0                
18                             0.214332030561603 15.8486075092092 0.929568778862025 -76.4942267526283 0.929568778862025 -76.4942267526283 0.214248356349938 15.5555889741434 
! Gamma         30.5207115178133 881.594395662924 29.9251395295429 876.087963051979 
! Port Impedance         50               0                50               0                
19                             0.216865092983263 12.0035647042721 0.926441804248145 -80.6012203741094 0.926441804248146 -80.6012203741094 0.216766544024511 11.6871433414353 
! Gamma         32.0007208368167 930.336830462444 31.3778781778584 924.535775668914 
! Port Impedance         50               0                50               0                
20                             0.218288488277485 8.17854261187397 0.923535717329271 -84.7005453038619 0.923535717329271 -84.7005453038619 0.218173461942839 7.83724131248348 
! Gamma         33.4777920536396 979.061176713254 32.8276311450308 972.966307987931 
! Port Impedance         50               0                50               0                
21                             0.218610747200695 4.3743183328232  0.920858258752284 -88.7943042548169 0.920858258752285 -88.7943042548169 0.218477524183745 4.00645427130879 
! Gamma         34.9509196957441 1027.76881639813 34.2734419934759 1021.38091597513 
! Port Impedance         50               0                50               0                
22                             0.217843459980403 0.591745977537972 0.918412497712886 -92.8846201074949 0.918412497712886 -92.8846201074949 0.217690192113197 0.195392427098491 
! Gamma         36.4192915363535 1076.46113366339 35.7145420077706 1069.78095312266 
! Port Impedance         50               0                50               0                
23                             0.216001136328468 -3.16806153559994 0.916197014649928 -96.9735997144198 0.916197014649927 -96.9735997144198 0.215825830368756 -3.59512267046576 
! Gamma         37.8822694477186 1125.13949117566 37.1503310612323 1118.16774819774 
! Port Impedance         50               0                50               0                
24                             0.213101173880777 -6.90354146150937 0.914206114992695 -101.063299593631 0.914206114992695 -101.063299593631 0.21290166989609 -7.36387911929537 
! Gamma         39.3393697762808 1173.80521221258 38.5803581394012 1166.54258852147 
! Port Impedance         50               0                50               0                
25                             0.209163926987044 -10.6124669425946 0.912430070878849 -105.155693449987 0.912430070878848 -105.155693449987 0.208937869509835 -11.1090761120454 
! Gamma         40.7902440062672 1222.45956768115 40.0043023020256 1214.90670790914 
! Port Impedance         50               0                50               0                
26                             0.204212867158099 -14.2916921123447 0.910855390399722 -109.252641501314 0.910855390399722 -109.252641501314 0.203957666616775 -14.8280899038797 
! Gamma         42.234660310335  1271.10376711272 41.4219545707935 1263.26127845631 
! Port Impedance         50               0                50               0                
27                             0.198274826560932 -17.9368331068485 0.909465115902867 -113.355861656564 0.909465115902867 -113.355861656564 0.19798760747453 -18.5171829065355 
! Gamma         43.672486324953  1319.73895301959 42.8332011006657 1311.60740549814 
! Port Impedance         50               0                50               0                
28                             0.191380316744063 -21.5418511644057 0.908239154208833 -117.466902682574 0.908239154208833 -117.466902682574 0.191057847649217 -22.1711250604902 
! Gamma         45.1036733703565 1368.36619791111 44.2380078197013 1359.94612507203 
! Port Impedance         50               0                50               0                
29                             0.183563917510604 -25.0984866207463 0.907154642139032 -121.587119576767 0.907154642139033 -121.587119576767 0.18320251521508 -25.7826808763085 
! Gamma         46.5282422350243 1416.98650332932 45.6364066320864 1408.27840337012 
! Port Impedance         50               0                50               0                
30                             0.174864736066568 -28.5954635394112 0.906186350635448 -125.717651462586 0.906186350635447 -125.717651462586 0.174460133108542 -29.3418887350017 
! Gamma         47.9462705270142 1465.60080058499 47.0284831634577 1456.6051376908  
! Port Impedance         50               0                50               0                
31                             0.165326947019797 -32.0173346232214 0.905307129878897 -129.859402401169 0.905307129878896 -129.859402401169 0.164874105205105 -32.8350127675579 
! Gamma         49.3578815484693 1514.20995259778 48.4143660297506 1504.92715849859 
! Port Impedance         50               0                50               0                
32                             0.155000443664027 -35.3427474489149 0.904488396246424 -134.01302557471 0.904488396246424 -134.01302557471 0.154493286580345 -36.2429651025937 
! Gamma         50.763234630408  1562.81475668093 49.7942175404029 1553.24523232332 
! Port Impedance         50               0                50               0                
33                             0.143941668708341 -38.5417505851755 0.903700659798986 -138.178911358854 0.903700659798987 -138.178911358854 0.143372688994648 -39.5388437213216 
! Gamma         52.1625168019812 1611.41594784819 51.1682256960564 1601.56006512869 
! Port Impedance         50               0                50               0                
34                             0.13221476712533 -41.5714478521979 0.902914088222062 -142.357179791053 0.902914088222063 -142.357179791053 0.13157443390534 -42.6839365275607 
! Gamma         53.555935693726  1660.01420255238 52.5365974017388 1649.87230609838 
! Port Impedance         50               0                50               0                
35                             0.119893355058293 -44.3686877640296 0.902099100090442 -146.547677942852 0.902099100090442 -146.547677942852 0.119169190840007 -45.6209445380927 
! Gamma         54.9437135319624 1708.61014259264 53.8995527395864 1698.18255151873 
! Port Impedance         50               0                50               0                
36                             0.107063524830487 -46.837163743013 0.901226977026984 -150.749982624314 0.901226977026984 -150.749982624314 0.106238613300586 -48.2618918333915 
! Gamma         56.3260821160617 1757.20433910584 55.2573201912744 1746.49134874406 
! Port Impedance         50               0                50               0                
37                             0.093829455680519 -48.8233610627321 0.900270481156185 -154.963408755455 0.900270481156186 -154.963408755455 0.0928799259561652 -50.4652356194967 
! Gamma         57.7032786533785 1805.79731652483 56.6101326951664 1794.79920011737 
! Port Impedance         50               0                50               0                
38                             0.0803248674530986 -50.0687543186786 0.899204461429359 -159.187023581056 0.899204461429358 -159.187023581056 0.0792154556923099 -51.9893586556315 
! Gamma         59.0755423465069 1854.38955644876 57.9582244209831 1843.10656674424 
! Port Impedance         50               0                50               0                
39                             0.0667386541067401 -50.1077383476755 0.898006430279151 -163.419666729376 0.898006430279152 -163.419666729376 0.0654145452573794 -52.3898348168686 
! Gamma         60.4431116175298 1902.98150133881 59.3018281725951 1891.41387214421 
! Port Impedance         50               0                50               0                
40                             0.053378395651992 -48.0335778255755 0.896657090871845 -167.659975893823 0.896657090871845 -167.659975893823 0.0517501622977923 -50.77009199374  
! Gamma         61.8062218972527 1951.57355804313 60.6411733100338 1939.72150568343 
! Port Impedance         50               0                50               0                
41                             0.0408451793794842 -41.947026772513 0.895140795256851 -171.906417694065 0.895140795256852 -171.906417694065 0.0387663009212674 -45.1270178889696 
! Gamma         63.165103879373  2000.16610110208 61.9764841437533 1988.02982577495 
! Port Impedance         50               0                50               0                
42                             0.0305334712656656 -27.9794996996765 0.893445915031601 -176.157323036445 0.893445915031602 -176.157323036445 0.0278272932606392 -30.8249592513289 
! Gamma         64.5199821802786 2048.75947584065 63.3079786864987 2036.33916291126 
! Port Impedance         50               0                50               0                
43                             0.0255337819833748 -2.34919045008062 0.89156510880883 179.589073913449 0.89156510880883 179.589073913449 0.0224392138057311 -1.88898570274498 
! Gamma         65.8710743277756 2097.35400121949 64.6358677436963 2084.64982241882 
! Port Impedance         50               0                50               0                
44                             0.0287702550867761 25.1688266067045 0.889495474633027 175.334594216952 0.889495474633027 175.334594216952 0.0262802865485945 29.1141231417158 
! Gamma         67.2185900335754 2145.9499724766  65.9603542595567 2132.96208700358 
! Port Impedance         50               0                50               0                
45                             0.0380718641923929 41.499639533701  0.887238580320693 171.081071308498 0.887238580320693 171.081071308498 0.0364094397530935 45.6205023780874 
! Gamma         68.5627307003082 2194.54766354655 67.2816328831539 2181.27621909911 
! Port Impedance         50               0                50               0                
46                             0.0499700804241283 48.8767140854462 0.884800370126753 166.830308075292 0.884800370126753 166.830308075292 0.0488699048509672 52.3260707050425 
! Gamma         69.9036891128679 2243.1473292759  68.5998897148883 2229.59246300188 
! Port Impedance         50               0                50               0                
47                             0.0627751618028406 51.6239736077374 0.882190951757533 162.584035156739 0.882190951757533 162.584035156739 0.0620388170337734 54.4729185949624 
! Gamma         71.2416492901059 2291.74920742078 69.9153022005089 2277.91104678734 
! Port Impedance         50               0                50               0                
48                             0.0757788629695476 51.9736958499374 0.87942427311369 158.343871683561 0.879424273113689 158.343871683561 0.0752930359506394 54.3761974421566 
! Gamma         72.5767864612141 2340.3535204889  71.2280391413907 2326.23218408368 
! Port Impedance         50               0                50               0                
49                             0.0886374464724645 50.9819983847506 0.876517702837409 154.111289567146 0.876517702837409 154.111289567146 0.088336275471449 53.0566042009313 
! Gamma         73.9092671404553 2388.9604773831  72.5382607945736 2374.55607564421 
! Port Impedance         50               0                50               0                
50                             0.101151239340903 49.1821690194829 0.87349153240996 149.887582271853 0.87349153240996 149.887582271853 0.100994326275084 51.0116995057361 
! Gamma         75.2392492830146 2437.57027489346 73.8461190494522 2422.88291078601 
! Port Impedance         50               0                50               0                
51                             0.113186114528004 46.8658753712875 0.870368419973857 145.67383879274  0.870368419973856 145.67383879274  0.113147418066622 48.5084003521243 
! Gamma         76.5668824996254 2486.18309904592 75.1517576579778 2471.21286867231 
! Port Impedance         50               0                50               0                
52                             0.12464249918365 44.2042836044538 0.867172797123439 141.4709233411   0.867172797123438 141.4709233411   0.124704576794197 45.7015920330742 
! Gamma         77.8923083189662 2534.79912630874 76.4553125058032 2519.54611946642 
! Port Impedance         50               0                50               0                
53                             0.135441779105933 41.3038956477103 0.863930259665564 137.27946098966  0.863930259665564 137.27946098966  0.135592643398105 42.6870044494837 
! Gamma         79.2156604829155 2583.41852467986 77.7569119161415 2567.88282536187 
! Port Impedance         50               0                50               0                
54                             0.145519734271932 38.2342388193875 0.860666961942097 133.099829320364 0.860666961942097 133.099829320364 0.145751047324722 39.5268990202067 
! Gamma         80.5370652657911 2632.04145465602 79.0566769711197 2616.22314152138 
! Port Impedance         50               0                50               0                
55                             0.154823065639361 35.0425307472036 0.857409031985768 128.932155906371 0.857409031985768 128.932155906372 0.155129055765621 36.263491400386  
! Gamma         81.8566418076322 2680.66807010111 80.3547218484619 2664.56721688819 
! Port Impedance         50               0                50               0                
56                             0.163307375815523 31.7619033199136 0.854182021807707 124.776321301641 0.854182021807707 124.776321301641 0.163684164844595 32.9264110426865 
! Gamma         83.1745024580695 2729.29851902647 81.6511541602504 2712.91519493543 
! Port Impedance         50               0                50               0                
57                             0.170935872267104 28.4162496268889 0.851010403855809 120.631967078794 0.851010403855809 120.631967078794 0.171381047281773 29.5370712576282 
! Gamma         84.4907531209518 2777.93294427883 82.9460752981255 2761.26721431171 
! Port Impedance         50               0                50               0                
58                             0.17767844897032 25.0232086946536 0.847917121348825 116.498508370845 0.847917121348824 116.498508370845 0.178190786084433 26.111350672261  
! Gamma         85.8054935984255 2826.5714841637  84.2395807703342 2809.62340943624 
! Port Impedance         50               0                50               0                
59                             0.183510979313424 21.5960779883087 0.844923197093693 112.375150324811 0.844923197093694 112.375150324811 0.184090266071951 22.6613093300992 
! Gamma         87.118817930398  2875.21427298875 85.5317605378153 2857.98391101449 
! Port Impedance         50               0                50               0                
60                             0.18841473848171 18.14508547031   0.842047402666829 108.260907855811 0.842047402666827 108.260907855811 0.189061663074796 19.19633187977   
! Gamma         88.4308147257456 2923.86144155293 86.822699339014  2906.34884649143 
! Port Impedance         50               0                50               0                
61                             0.19237591627149 14.678267331691  0.839305987627354 104.154628108573 0.839305987627354 104.154628108573 0.193092004256785 15.7239204024055 
! Gamma         89.7415674866733 2972.51311757579 88.1124770034564 2954.71834047256 
! Port Impedance         50               0                50               0                
62                             0.19538520300311 11.2020971453548 0.836712466792957 100.055015060135 0.836712466792957 100.055015060135 0.196172789786084 12.2502683206861 
! Gamma         91.0511549148993 3021.16942608939 89.4011687579211 3003.09251506597 
! Port Impedance         50               0                50               0                
63                             0.197437442203439 7.72195602495662 0.83427746252078 95.9606557466558 0.83427746252078 95.9606557466558 0.198299674342361 8.78069620208938 
! Gamma         92.3596512168472 3069.83048976561 90.6888455149547 3051.47149022331 
! Port Impedance         50               0                50               0                
64                             0.198531348868843 4.24250106455897 0.83200859840293 91.8700476486466 0.83200859840293 91.8700476486467 0.199472210532101 5.32000138244067 
! Gamma         93.6671263834798 3118.49642922193 91.9755741521541 3099.855383999   
! Port Impedance         50               0                50               0                
65                             0.198669294225867 0.767970451987961 0.829910440697558 87.7816268173649 0.829910440697558 87.7816268173649 0.199693657560279 1.87275667528654 
! Gamma         94.9736464671554 3167.16736328697 93.2614177780032 3148.24431281374 
! Port Impedance         50               0                50               0                
66                             0.197857158292736 -2.69754729809293 0.827984484105429 83.6937963747772 0.827984484105427 83.6937963747772 0.198970858489709 -1.55641598814195 
! Gamma         96.2792738387674 3215.84340922583 94.546435978184  3196.63839166392 
! Port Impedance         50               0                50               0                
67                             0.196104251130034 -6.14985850736399 0.826229179050867 79.6049550517662 0.826229179050866 79.6049550517662 0.197314188928195 -4.96257596128314 
! Gamma         97.5840674337021 3264.52468294888 95.8306850602446 3245.03773430976 
! Port Impedance         50               0                50               0                
68                             0.193423302870118 -9.58440488251451 0.824639998343596 75.5135254603443 0.824639998343595 75.5135254603443 0.194737579371136 -8.34017881347392 
! Gamma         98.8880829836994 3313.21129919359 97.1142182717441 3293.44245345219 
! Port Impedance         50               0                50               0                
69                             0.189830521928625 -12.9959800887456 0.82320954185719 71.4179818000385 0.823209541857189 71.4179818000385 0.191258613224037 -11.6827549847983 
! Gamma         100.191373236088 3361.90337167651 98.3970860135651 3341.85266087087 
! Port Impedance         50               0                50               0                
70                             0.185345720404806 -16.3783997481956 0.821927678584713 67.3168767066778 0.821927678584713 67.3168767066778 0.186898702949442 -14.9825271359833 
! Gamma         101.493988159718 3410.60101322983 99.6793360399561 3390.26846755002 
! Port Impedance         50               0                50               0                
71                             0.179992506168889 -19.7240955025363 0.820781725996205 63.2088669311027 0.820781725996205 63.2088669311027 0.181683348592437 -18.2299332722915 
! Gamma         102.795975138593 3459.30433592615 100.961013643121 3438.68998379479 
! Port Impedance         50               0                50               0                
72                             0.173798542843951 -23.0235919521031 0.819756666983486 59.0927375221776 0.819756666983486 59.0927375221775 0.175642486672873 -21.4130095783237 
! Gamma         104.097379153903 3508.01345117437 102.242161828593 3487.11731932614 
! Port Impedance         50               0                50               0                
73                             0.166795883045955 -26.264805555183 0.818835404719165 54.9674241534889 0.818835404719164 54.9674241534889 0.168810944726912 -24.5165657665187 
! Gamma         105.398242953093 3556.72846982419 103.522821478379 3535.55058335975 
! Port Impedance         50               0                50               0                
74                             0.159021388230723 -29.4320717216069 0.817999055467929 50.8320332098232 0.817999055467928 50.8320332098232 0.16122902961664 -27.5210517718746 
! Gamma         106.698607210785 3605.4495022219  104.803031504521 3583.98988468065 
! Port Impedance         50               0                50               0                
75                             0.150517263501977 -32.5047509153834 0.817227278699487 46.6858592194074 0.817227278699487 46.6858592194074 0.152943300322276 -30.4009595071598 
! Gamma         107.99851067596  3654.17665829946 106.082828991206 3632.43533170402 
! Port Impedance         50               0                50               0                
76                             0.141331763099381 -35.4551687819501 0.816498642792085 42.5283992059924 0.816498642792085 42.5283992059924 0.14400761520296 -33.1225125945903 
! Gamma         109.297990311754 3702.91004761721 107.362249327668 3680.88703252642 
! Port Impedance         50               0                50               0                
77                             0.131520173005756 -38.2454750596414 0.815791023179123 38.3593635255489 0.815791023179124 38.3593635255489 0.134484613129689 -35.640244858401 
! Gamma         110.59708142433  3751.64977941892 108.641326331743 3729.34509497491 
! Port Impedance         50               0                50               0                
78                             0.121146273142994 -40.8226931861227 0.815082028059554 34.1786827767189 0.815082028059554 34.1786827767189 0.124447912524896 -37.8918098463237 
! Gamma         111.895817783607 3800.39596267332 109.920092366299 3777.80962663762 
! Port Impedance         50               0                50               0                
79                             0.110284670083198 -43.1106373504896 0.814349444863046 29.9865104110637 0.814349444863045 29.9865104110637 0.113985541661324 -39.789920783935 
! Gamma         113.194231736465 3849.14870610786 111.198578445257 3826.2807348995  
! Port Impedance         50               0                50               0                
80                             0.099024777984575 -44.9961997780149 0.813571698659114 25.7832207407099 0.813571698659114 25.7832207407099 0.103205545912788 -41.2095690566338 
! Gamma         114.492354308129 3897.9081182391  112.476814333475 3874.75852697    
! Port Impedance         50               0                50               0                
81                             0.0874780605425814 -46.3051187995003 0.812728311810122 21.5694021406073 0.812728311810121 21.5694021406073 0.0922455482026246 -41.9674621289515 
! Gamma         115.790215302337 3946.67430739624 113.754828638694 3923.24310990031 
! Port Impedance         50               0                50               0                
82                             0.0757920498853874 -46.7573768105635 0.811800352568532 17.3458453681252 0.811800352568531 17.3458453681252 0.0812896355462233 -41.7890378910084 
! Gamma         117.087843388528 3995.44738174636 115.032648897715 3971.73459060778 
! Port Impedance         50               0                50               0                
83                             0.0641792099168409 -45.8824236466407 0.810770859208038 13.1135270732656 0.810770859208038 13.1135270732656 0.0705988542733638 -40.2580846214946 
! Gamma         118.385266187174 4044.22744930018 116.310301656221 4020.23307588175 
! Port Impedance         50               0                50               0                