! Touchstone file exported from HFSS 2024.2.0
!        File:           C:/Users/vaintrug/Documents/Ansoft_Workspace/Comparaison_Calculs_HFSS/1_VarPort.aedt
!        Generated:      03:22:19 PM Jan 21, 2025
!        Design:         1_NoDeembed_FacePortFree
!        Project:        1_VarPort
!        Setup:          Setup1
!        Solution:       Sweep
!
! Variables:
!        $Lenght = 2000um
!        $PortSize = 330um
!        Gap = 30um
!        Th = 2um
!        X_centralStrip = 20um
!        X_masse = 200um
!        Y_Sub = 2mm
!        Z_Box = 400um
!        Z_Sub = 200um
!
# GHz S MA R 50.000000
! Terminal data exported
! Port[1] = 1
! Port[2] = 2
1                              0.0286975400713051 62.0563599075545 0.985418066729607 -5.91351453893715 0.985418066729608 -5.91351453893715 0.0286982274151411 62.0466917496061 
! Gamma         5.86091311190463 49.8289302865509 5.92214038114135 50.1361037491142 
! Port Impedance         50               0                50               0                
2                              0.0514025939710017 67.1383031280497 0.98176406838338 -11.6866670052765 0.98176406838338 -11.6866670052765 0.0514016459144282 67.1188516021796 
! Gamma         7.66159380211635 98.3612592158084 7.75960893410335 98.8471489737319 
! Port Impedance         50               0                50               0                
3                              0.0742497611303944 65.883389821089  0.978045664721748 -17.4587949851164 0.978045664721748 -17.4587949851164 0.0742458180402128 65.8552209881803 
! Gamma         9.11215417299015 146.873467628432 9.21208986567926 147.573756426302 
! Port Impedance         50               0                50               0                
4                              0.0965068145752444 62.5411904008271 0.973887217327672 -23.2202506897941 0.973887217327672 -23.2202506897941 0.0964989549027277 62.5043078261904 
! Gamma         10.4607813551912 195.440371397781 10.5655718099744 196.367641939836 
! Port Impedance         50               0                50               0                
5                              0.117730000643627 58.2965851720581 0.969272090842072 -28.9613757491529 0.969272090842073 -28.9613757491529 0.117717325651691 58.2507954884284 
! Gamma         11.7908305989073 244.038503218021 11.9040172239689 245.195666286453 
! Port Impedance         50               0                50               0                
6                              0.13761338314932 53.604015592109  0.964272281301371 -34.6754534556838 0.964272281301371 -34.6754534556838 0.137594988532567 53.5490725276512 
! Gamma         13.1295356238625 292.647180271134 13.2533170088898 294.034602548055 
! Port Impedance         50               0                50               0                
7                              0.155925986996678 48.673466993716  0.958991065733353 -40.358014767573 0.958991065733354 -40.358014767573 0.155900976201542 48.6090849166623 
! Gamma         14.4859786320463 341.253272578443 14.6217323845805 342.87059947402  
! Port Impedance         50               0                50               0                
8                              0.172488787780841 43.6148520689262 0.953543603509288 -46.0064772291534 0.953543603509287 -46.0064772291534 0.172456282451886 43.540699880623  
! Gamma         15.8624953113233 389.848513939512 16.0111439553911 391.695163646068 
! Port Impedance         50               0                50               0                
9                              0.187164286111976 38.4907769835822 0.948046804541045 -51.6199433816171 0.948046804541045 -51.6199433816171 0.187123430925361 38.4064689486055 
! Gamma         17.2585739125508 438.427607210824 17.4207666050211 440.502921290706 
! Port Impedance         50               0                50               0                
10                             0.199850052644781 33.3389204907257 0.942612587682306 -57.1990317987385 0.942612587682305 -57.1990317987386 0.19980001547484 33.244005943641  
! Gamma         18.6724055401738 486.987170464455 18.8486068827489 489.290468171757 
! Port Impedance         50               0                50               0                
11                             0.210473584094533 28.182699420551  0.937343042968577 -62.7456982884532 0.937343042968578 -62.7456982884532 0.210413552331335 28.0766510740648 
! Gamma         20.101593096057  535.525142500501 20.292129995837  538.055745887204 
! Port Impedance         50               0                50               0                
12                             0.218987724888133 23.0368802685957 0.932327007986372 -68.2630394177281 0.932327007986372 -68.2630394177281 0.21891689843457 22.9190803750057 
! Gamma         21.5435165233197 584.040423037138 21.7486060395643 586.797672090006 
! Port Impedance         50               0                50               0                
13                             0.225366545407491 17.9108123067711 0.927637800849705 -73.7550826983404 0.927637800849706 -73.7550826983404 0.225284126664767 17.780535782298  
! Gamma         22.9955385814359 632.53263535891  23.2153073577092 635.515898307715 
! Port Impedance         50               0                50               0                
14                             0.229601759345019 12.8104648114527 0.923331901419876 -79.2265708997336 0.923331901419877 -79.2265708997336 0.229506940268463 12.6668581564562 
! Gamma         24.4551269467592 681.001956293693 24.6896265875557 684.210637213409 
! Port Impedance         50               0                50               0                
15                             0.231699791247032 7.73983695353149 0.919448387758287 -84.6827474277474 0.919448387758286 -84.6827474277474 0.231591737267661 7.58189145056208 
! Gamma         25.9199273077334 729.448986379497 26.1691473624065 732.88253064795  
! Port Impedance         50               0                50               0                
16                             0.231679575901174 2.7020389208711  0.916008954868058 -90.1291479646791 0.916008954868058 -90.1291479646791 0.231557406116298 2.52855600730752 
! Gamma         27.3878050575157 777.874646252034 27.6516847641558 781.532543783711 
! Port Impedance         50               0                50               0                
17                             0.229571127248512 -2.29977924808856 0.913018373319116 -95.5714016840029 0.913018373319115 -95.5714016840029 0.229433889719665 -2.4902334348895 
! Gamma         28.8568657563893 826.280092067782 29.1353044712932 830.161879036195 
! Port Impedance         50               0                50               0                
18                             0.22541487192518 -7.26152591660221 0.91046528304137 -101.015043920821 0.910465283041369 -101.015043920821 0.22526151210061 -7.47068118784149 
! Gamma         30.3254607289847 874.666645879703 30.6183272661056 878.77190483649  
! Port Impedance         50               0                50               0                
19                             0.219261708864166 -12.1771782942773 0.908323256554442 -106.465341299161 0.908323256554443 -106.465341299161 0.21909102789016 -12.4071427371334 
! Gamma         31.7921823739659 923.035738277838 32.099323206007  927.364097174524 
! Port Impedance         50               0                50               0                
20                             0.211173732407849 -17.0375671198241 0.906552101514283 -111.927130089411 0.906552101514283 -111.927130089411 0.210984330091174 -17.2909410374126 
! Gamma         33.2558523495395 971.38886178353  33.5770987350687 975.939992012785 
! Port Impedance         50               0                50               0                
21                             0.201225545293668 -21.8287328548803 0.905099400611328 -117.404668841969 0.905099400611326 -117.404668841969 0.201015739169019 -22.1087698203934 
! Gamma         34.7155052475959 1019.7275333326  35.0506792516434 1024.50114712278 
! Port Impedance         50               0                50               0                
22                             0.189506095598821 -26.5295152994436 0.903902304953202 -122.901507038776 0.903902304953202 -122.901507038776 0.189273801805109 -26.8403552690465 
! Gamma         36.1703695790626 1068.0532647284  36.5192890672766 1073.04911208839 
! Port Impedance         50               0                50               0                
23                             0.176121016079897 -31.1077642870219 0.902889603074053 -128.420372375556 0.902889603074054 -128.420372375556 0.175863567361383 -31.4547798941063 
! Gamma         37.6198475062572 1116.3675399473  37.9823302063313 1121.58540534864 
! Port Impedance         50               0                50               0                
24                             0.161195565872289 -35.5139860096078 0.901984080908348 -133.9630802227  0.901984080908349 -133.9630802227  0.160909422213604 -35.9043118322183 
! Gamma         39.0634944105322 1164.6717981696  39.4393610926656 1170.11149713772 
! Port Impedance         50               0                50               0                
25                             0.144878576784679 -39.6699741453251 0.901105168341126 -139.530469510684 0.901105168341127 -139.530469510684 0.14455884443449 -40.1133397015616 
! Gamma         40.5009989980009 1212.96742173628 40.8900759148082 1218.6287974722  
! Port Impedance         50               0                50               0                
26                             0.12734856109287 -43.4469729798696 0.900171837118557 -145.122369630675 0.900171837118557 -145.122369630675 0.126988150815375 -43.957048595423 
! Gamma         41.9321644971076 1261.25572798691 42.3342851694711 1267.138648096   
! Port Impedance         50               0                50               0                
27                             0.108825152828395 -46.6201457836625 0.899105676025665 -150.737602654725 0.899105676025665 -150.737602654725 0.108413214746722 -47.2167366539835 
! Gamma         43.3568912480714 1309.53796441052 43.7718976915377 1315.642317808   
! Port Impedance         50               0                50               0                
28                             0.0895950419063589 -48.7637657684948 0.897834027678521 -156.37402422869 0.897834027678522 -156.37402422869 0.0891138455195354 -49.4761648249908 
! Gamma         44.7751608628837 1357.81530632167 45.2029043653498 1364.14100036388 
! Port Impedance         50               0                50               0                
29                             0.0700821304664709 -48.9791470686156 0.896293033612358 -162.028604766825 0.896293033612359 -162.028604766825 0.0695004109125165 -49.8489991895485 
! Gamma         46.1870220409091 1406.08885652104 46.627363561485  1412.63581439444 
! Port Impedance         50               0                50               0                
30                             0.0510758485967309 -45.088678207336 0.894430408059437 -167.697550205227 0.894430408059436 -167.697550205227 0.0503347663016973 -46.151196467516 
! Gamma         47.592578011084  1454.35964651272 48.0453882890735 1461.12780484638 
! Port Impedance         50               0                50               0                
31                             0.0346239679357348 -31.1995157436708 0.892207752685355 -173.37645875908 0.892207752685355 -173.37645875908 0.0336283567657099 -32.2498447321935 
! Gamma         48.9919755473667 1502.62863879538 49.4571349842048 1509.61794555805 
! Port Impedance         50               0                50               0                
32                             0.0269113689137786 2.34486381984214 0.889602239115184 -179.060507200306 0.889602239115184 -179.060507200306 0.0257778422884622 2.68499436880134 
! Gamma         50.3853954694618 1550.89672997733 50.8627938320849 1558.10714260207 
! Port Impedance         50               0                50               0                
33                             0.034467523133768 35.8331511522505 0.886607524218434 175.255342454381 0.886607524218433 175.255342454381 0.0337250101748544 37.2025863014261 
! Gamma         51.7730444939175 1599.16475438757 52.26258050104   1606.59623812899 
! Port Impedance         50               0                50               0                
34                             0.0505365451817619 49.6991570055173 0.88323382128459 169.576126905518 0.883233821284591 169.576126905518 0.0501304865159514 50.8017514733341 
! Gamma         53.1551483134621 1647.4334880554  53.6567291268768 1655.0860145582  
! Port Impedance         50               0                50               0                
35                             0.0689116080424464 53.621537373769  0.879507120788621 163.906668176721 0.87950712078862 163.906668176721 0.0686886726441473 54.4229811284038 
! Gamma         54.5319457764977 1695.70365279972 55.0454864474595 1703.57719885636 
! Port Impedance         50               0                50               0                
36                             0.0875601253036233 53.4726860563789 0.875467627069824 158.251374643279 0.875467627069824 158.251374643279 0.0874442734802033 54.0672231182974 
! Gamma         55.9036840384571 1743.97592035562 56.4291069182913 1752.07046685469 
! Port Impedance         50               0                50               0                
37                             0.105713421485865 51.4232139697288 0.871167541130187 152.614066905188 0.871167541130188 152.614066905188 0.105666448286713 51.8740863040805 
! Gamma         57.2706145562695 1792.25091649667 57.8078486962092 1800.56644749505 
! Port Impedance         50               0                50               0                
38                             0.122972862545861 48.3699667895978 0.866668365907928 146.997836654196 0.866668365907929 146.997836654196 0.122973254738832 48.7153381025924 
! Gamma         58.6329898271339 1840.52922494818 59.1819703878294 1849.06572689942 
! Port Impedance         50               0                50               0                
39                             0.139081174793761 44.7386728123251 0.86203793350637 141.404943838376 0.862037933506371 141.404943838376 0.139115458829808 45.0021415981517 
! Gamma         59.9910607530554 1888.81139119616 60.5517284210881 1897.56885229637 
! Port Impedance         50               0                50               0                
40                             0.153851804945976 40.7550385850559 0.857347353114932 135.836754407245 0.857347353114932 135.836754407245 0.153910728331965 40.9517162058894 
! Gamma         61.3450745552437 1937.09792604992 61.9173749877079 1946.07633567834 
! Port Impedance         50               0                50               0                
41                             0.167142503029373 36.5492616703985 0.852668057003479 130.293718110862 0.852668057003478 130.293718110862 0.167219173119551 36.6890686472685 
! Gamma         62.6952731398159 1985.38930900177 63.2791564388621 1994.58865724051 
! Port Impedance         50               0                50               0                
42                             0.178843463237728 32.2014821037723 0.848069086165252 124.775383518692 0.848069086165253 124.775383518692 0.178932353657933 32.2909812109338 
! Gamma         64.0418918596078 2033.68599135595 64.6373120736643 2043.10626860238 
! Port Impedance         50               0                50               0                
43                             0.188870890445694 27.7636203063264 0.843614714247806 119.280445777796 0.843614714247807 119.280445777796 0.188967264506615 27.807073487937  
! Gamma         65.3851585952295 2081.9883991125  65.9920732529375 2091.62959574029 
! Port Impedance         50               0                50               0                
44                             0.197162823658181 23.2707849015831 0.839362465327569 113.806821707112 0.83936246532757 113.806821707112 0.197262371060917 23.2707800389308 
! Gamma         66.7252931072333 2130.29693563518 67.3436627909795 2140.15904171778 
! Port Impedance         50               0                50               0                
45                             0.203676043735794 18.7476893277887 0.835361543335051 108.351746537335 0.835361543335051 108.351746537335 0.203774630672654 18.7055153602695 
! Gamma         68.0625066119576 2178.61198409516 68.6922945599877 2188.69498915789 
! Port Impedance         50               0                50               0                
46                             0.208383632001833 14.2125256307384 0.831651661951993 102.911886829789 0.831651661951992 102.911886829789 0.208477111659856 14.1283909201041 
! Gamma         69.397001538701  2226.9339097116  70.0381732818771 2237.2378025353  
! Port Impedance         50               0                50               0                
47                             0.211273035386306 9.67948438899233 0.828262245004843 97.4834646678962 0.828262245004843 97.4834646678962 0.211357088184389 9.55262961585988 
! Gamma         70.7289714383921 2275.26306177329 71.3814944664985 2285.78783021445 
! Port Impedance         50               0                50               0                
48                             0.212344605948772 5.16054152129769 0.825211958442169 92.0623889366524 0.82521195844217 92.0623889366524 0.212414589606389 4.98927419378938 
! Gamma         72.0586010066489 2323.59977550634 72.7224444668531 2334.34540634386 
! Port Impedance         50               0                50               0                
49                             0.21161062088357 0.666864209157853 0.822508534505527 86.6443902352253 0.822508534505527 86.6443902352253 0.211661415180871 0.448527141914624 
! Gamma         73.3860662033188 2371.94437373412 74.0612006241425 2382.91085254352 
! Port Impedance         50               0                50               0                
50                             0.209094796831176 -3.78993903232967 0.820148854483612 81.2251565864736 0.820148854483612 81.2251565864736 0.209120628989526 -4.0590631361449 
! Gamma         74.7115344500407 2420.29716841734 75.3979314917217 2431.48447944661 
! Port Impedance         50               0                50               0                
51                             0.204832309072115 -8.19655144552747 0.818119266110244 75.8004675431686 0.818119266110244 75.8004675431686 0.204826543857391 -8.52140584682971 
! Gamma         76.03516487673   2468.65846202023 76.732797106118  2480.06658808053 
! Port Impedance         50               0                50               0                
52                             0.198870322834826 -12.5364952914196 0.816396122819082 70.3663244850623 0.816396122819083 70.3663244850623 0.198825196546841 -12.9235010901468 
! Gamma         77.3571086168345 2517.02854874663 78.0659493020134 2528.65747111625 
! Port Impedance         50               0                50               0                
53                             0.191269049110849 -16.7882835621139 0.814946542433898 64.9190748763377 0.814946542433898 64.9190748763377 0.191175317396019 -17.2457043432322 
! Gamma         78.6775091309771 2565.40771567362 79.3975320582855 2577.25741399761 
! Port Impedance         50               0                50               0                
54                             0.182103362208405 -20.9228675108627 0.813729390431939 59.4555280149947 0.813729390431939 59.4555280149948 0.181949815631706 -21.461328739576 
! Gamma         79.9965025510323 2613.79624375919 80.7276818599998 2625.86669595511 
! Port Impedance         50               0                50               0                
55                             0.171465080351793 -24.8998761129355 0.812696496023488 53.973059433066  0.812696496023488 53.973059433066  0.171237854123622 -25.5331023897117 
! Gamma         81.3142180394169 2662.19440875123 82.0565280699749 2674.48559092748 
! Port Impedance         50               0                50               0                
56                             0.159466154549885 -28.6617683574293 0.811794106539723 48.4697006812416 0.811794106539723 48.4697006812416 0.159147710682503 -29.4076296923276 
! Gamma         82.6307781515069 2710.6024820135  83.3841933119326 2723.11436837173 
! Port Impedance         50               0                50               0                
57                             0.14624332018576 -32.1242859983139 0.810964576439939 42.9442108639269 0.81096457643994 42.944210863927  0.145810894634049 -33.0062731219688 
! Gamma         83.946299202926  2759.02073127614 84.7107938464918 2771.75329401322 
! Port Impedance         50               0                50               0                
58                             0.131965436930477 -35.1601161020367 0.810148271551325 37.396126106686  0.810148271551325 37.396126106686  0.131388589015069 -36.2093593375161 
! Gamma         85.2608916324695 2807.44942129381 86.0364399470327 2820.40263051621 
! Port Impedance         50               0                50               0                
59                             0.116846245989615 -37.5695991541513 0.809285648077269 31.8257832619681 0.809285648077269 31.8257832619681 0.116082867519075 -38.8273527869904 
! Gamma         86.5746603610158 2855.88881446536 87.3612362697523 2869.06263808606 
! Port Impedance         50               0                50               0                
60                             0.101168801171946 -39.0258376084292 0.80831944150873 26.2343146886014 0.80831944150873 26.2343146886014 0.10015847468847 -40.5453497134227 
! Gamma         87.8877051375925 2904.33917137493 88.6852822072164 2917.73357501198 
! Port Impedance         50               0                50               0                
61                             0.0853364752948331 -38.9685696809326 0.807196876100759 20.6236119417364 0.807196876100759 20.6236119417364 0.0839895621661107 -40.8109001907418 
! Gamma         89.2001208827955 2952.8007512967  90.0086722429336 2966.41569816541 
! Port Impedance         50               0                50               0                
62                             0.0699866871863724 -36.4031325739186 0.805871784955183 14.9962576802017 0.805871784955183 14.9962576802017 0.0681689000103201 -38.6034600108023 
! Gamma         90.5119980149285 3001.27381264418 91.3314962804654 3015.10926344885 
! Port Impedance         50               0                50               0                
63                             0.0562464050465987 -29.604296457765 0.80430651819699 9.3554269510911  0.804306518196991 9.35542695109109 0.0537746463358637 -32.019394203064 
! Gamma         91.8234227655715 3049.75861338561 92.6538399683581 3063.81452619826 
! Port Impedance         50               0                50               0                
64                             0.0461908790989274 -16.3083443917355 0.802473515789234 3.70476108868807 0.802473515789234 3.70476108868808 0.0429390886816966 -18.1584812636748 
! Gamma         93.1344774833566 3098.25541141919 93.9757850071694 3112.53174156192 
! Port Impedance         50               0                50               0                
65                             0.0428215149075767 3.10766372043861 0.800356434360675 -1.95178045698201 0.800356434360675 -1.95178045698202 0.0391089467876417 3.31628003791528 
! Gamma         94.4452409233826 3146.76446492341 95.2974094461308 3161.26116483315 
! Port Impedance         50               0                50               0                
66                             0.0475340567330259 21.5819075442083 0.79795074400247 -7.61008324598238 0.797950744002469 -7.61008324598239 0.0441031236205039 23.8168297630311 
! Gamma         95.7557885232939 3195.28603267364 96.6187879585627 3210.00305177567 
! Port Impedance         50               0                50               0                
67                             0.0581108091453654 33.3240988617712 0.795263748882864 -13.2660475177725 0.795263748882864 -13.2660475177725 0.0552886409350842 36.206855695458  
! Gamma         97.0661926686812 3243.82037433437 97.9399921142018 3258.75765889739 
! Port Impedance         50               0                50               0                
68                             0.0715819288448686 39.0397999355819 0.792314030122577 -18.9157554097175 0.792314030122577 -18.9157554097175 0.0693057954791359 41.8603651742916 
! Gamma         98.376522940097  3292.36775075181 99.2610906288632 3307.52524373455 
! Port Impedance         50               0                50               0                
69                             0.0861085696181408 40.9875869840916 0.789130354706927 -24.5556269423414 0.789130354706927 -24.5556269423413 0.0842533016104049 43.5776729167119 
! Gamma         99.6868463550977 3340.92842418438 100.582149604833 3356.30606509338 
! Port Impedance         50               0                50               0                
70                             0.100713382642145 40.7112112315908 0.785750134134614 -30.1825569670062 0.785750134134614 -30.1825569670062 0.099182378975057 43.0706092430727 
! Gamma         100.99722759107  3389.50265856285 101.903232759552 3405.10038328171 
! Port Impedance         50               0                50               0                
71                             0.114844684736047 39.0873480608216 0.782217545934385 -35.7940268742937 0.782217545934385 -35.7940268742937 0.113572575912361 41.2523200608779 
! Gamma         102.307729200361 3438.09071971678 103.224401639129 3453.90846034183 
! Port Impedance         50               0                50               0                
72                             0.128157139177053 36.612946824437  0.778581447026807 -41.3881868691189 0.778581447026807 -41.3881868691189 0.12710036187313 38.6216470765335 
! Gamma         103.618411813483 3486.69287559227 104.545715823677 3502.73056026004 
! Port Impedance         50               0                50               0                
73                             0.140415057957833 33.5814243012636 0.774893209526031 -46.9639067648835 0.774893209526031 -46.9639067648835 0.139544268121678 35.4664579856752 
! Gamma         104.929334330653 3535.30939645731 105.867233119199 3551.56694915585 
! Port Impedance         50               0                50               0                
74                             0.15144840094338 30.1744620979548 0.771204598599563 -52.5207952886452 0.771204598599563 -52.5207952886452 0.15074357216545 31.9623998644707 
! Gamma         106.240554105572 3583.9405551133  107.189009738747 3600.41789549731 
! Port Impedance         50               0                50               0                
75                             0.161131186216801 26.5097289827168 0.76756579174608 -58.059189623195 0.76756579174608 -58.059189623195 0.160578558241693 28.2221630853741 
! Gamma         107.552127117372 3632.58662708714 108.511100478252 3649.2836702798  
! Port Impedance         50               0                50               0                
76                             0.169369884841316 22.6666108223475 0.764023613441764 -63.5801182152336 0.764023613441765 -63.5801182152336 0.168960054389166 24.3213448999209 
! Gamma         108.864108134476 3681.24789082064 109.833558877798 3698.16454720705 
! Port Impedance         50               0                50               0                
77                             0.176096549729632 18.7007428734582 0.760620032626167 -69.085240708477 0.760620032626167 -69.085240708477 0.17582325900823 20.3127966178584 
! Gamma         110.176550871718 3729.9246278723  111.156437376573 3747.06080288714 
! Port Impedance         50               0                50               0                
78                             0.181264366675455 14.6526318922449 0.757390946326619 -74.5767692471638 0.757390946326619 -74.5767692471638 0.18112372652391 16.2350328688541 
! Gamma         111.489508137974 3778.61712309885 112.479787461195 3795.97271700431 
! Port Impedance         50               0                50               0                
79                             0.184844574760174 10.5530444677633 0.754365253166072 -80.0573754155476 0.754365253166071 -80.0573754155476 0.184834567945926 12.1174477907853 
! Gamma         112.803031977125 3827.32566484015 113.803659804719 3844.9005724968  
! Port Impedance         50               0                50               0                
80                             0.186824266790736 6.42657618546962 0.751564206694235 -85.5300868385396 0.751564206694235 -85.5300868385396 0.186944440559245 7.98376036019069 
! Gamma         114.117173803485 3876.05054512331 115.12810440121  3893.8446557486  
! Port Impedance         50               0                50               0                
81                             0.187204840212151 2.29418825413059 0.749001030526782 -90.998177086376 0.749001030526782 -90.998177086376 0.187456135264866 3.85446873791169 
! Gamma         115.431984529246 3924.79205983375 116.453170689595 3942.80525676242 
! Port Impedance         50               0                50               0                
82                             0.186000990297051 -1.82482115422048 0.746680774484991 -96.4650521026803 0.746680774484991 -96.4650521026803 0.186385677410543 -0.251227241076636 
! Gamma         116.747514689266 3973.55050892866 117.778907679041 3991.78266934727 
! Port Impedance         50               0                50               0                
83                             0.183240194624527 -5.9111041602674 0.744600392070814 -101.934135993337 0.744600392070814 -101.934135993337 0.183761906778819 -4.3137351184893 
! Gamma         118.06381455882  4022.32619662083 119.105364061958 4040.77719130674 
! Port Impedance         50               0                50               0                