! Touchstone file exported from HFSS 2024.2.0
!        File:           C:/Users/vaintrug/Documents/Ansoft_Workspace/Comparaison_Calculs_HFSS/1_VarPort.aedt
!        Generated:      03:22:18 PM Jan 21, 2025
!        Design:         1_NoDeembed_FacePortFree
!        Project:        1_VarPort
!        Setup:          Setup1
!        Solution:       Sweep
!
! Variables:
!        $Lenght = 2000um
!        $PortSize = 210um
!        Gap = 30um
!        Th = 2um
!        X_centralStrip = 20um
!        X_masse = 200um
!        Y_Sub = 2mm
!        Z_Box = 400um
!        Z_Sub = 200um
!
# GHz S MA R 50.000000
! Terminal data exported
! Port[1] = 1
! Port[2] = 2
1                              0.0277265752198877 61.2095631345255 0.985394833019431 -5.90116289185417 0.985394833019431 -5.90116289185417 0.0277208800071706 61.2219005743158 
! Gamma         5.85585817213776 49.9891944288323 5.88256871815502 49.9905907638088 
! Port Impedance         50               0                50               0                
2                              0.0494223478481976 66.7757107400945 0.981880165380164 -11.6676266342544 0.981880165380164 -11.6676266342544 0.0494047355137687 66.8186902654859 
! Gamma         7.56865889346683 98.6696952347333 7.64697361037128 98.7194558428404 
! Port Impedance         50               0                50               0                
3                              0.0713685668650541 65.6969802809768 0.978290535010776 -17.4358893308587 0.978290535010776 -17.4358893308587 0.0713403178896742 65.7718951673969 
! Gamma         8.95674001200344 147.416494478053 9.08072922692916 147.445692765239 
! Port Impedance         50               0                50               0                
4                              0.0927768589732712 62.4281231977051 0.974275801249187 -23.1947166611648 0.974275801249188 -23.1947166611648 0.0927400451236684 62.5346496591125 
! Gamma         10.2751295130537 196.228514981291 10.421913598463  196.227851590458 
! Port Impedance         50               0                50               0                
5                              0.113205547534121 58.2155889815418 0.969825219040027 -28.9347974992778 0.969825219040027 -28.9347974992778 0.113162208881698 58.3537249272803 
! Gamma         11.5890243562869 245.068721906733 11.7485511428147 245.040196925448 
! Port Impedance         50               0                50               0                
6                              0.132357029999383 53.5338918419335 0.965007022246486 -34.6498031420721 0.965007022246486 -34.6498031420721 0.132309061048816 53.704034452376  
! Gamma         12.9172572401586 293.915773161464 13.0855427603547 293.862000774097 
! Port Impedance         50               0                50               0                
7                              0.150007493597904 48.6010841099505 0.959917470721534 -40.3355167066231 0.959917470721534 -40.3355167066231 0.14995666868907 48.8039781731193 
! Gamma         14.2653431358106 342.757602704701 14.4409125717784 342.680401799601 
! Port Impedance         50               0                50               0                
8                              0.165982943658545 43.5308905407101 0.954663739312097 -45.989469405502 0.954663739312097 -45.989469405502 0.165930975396825 43.7675911858212 
! Gamma         15.6340535292785 391.58693043619  15.8164972537313 391.487379186668 
! Port Impedance         50               0                50               0                
9                              0.180148878266878 38.3879660733202 0.949354818987169 -51.6107535302874 0.949354818987168 -51.6107535302874 0.180097481316588 38.6598246065877 
! Gamma         17.0221750440645 440.399164862072 17.2115491271032 440.277810273216 
! Port Impedance         50               0                50               0                
10                             0.192404178371453 33.211219769113  0.944095341999051 -57.1998701820661 0.944095341999051 -57.1998701820661 0.192355130926286 33.5198884037928 
! Gamma         18.4275931261807 489.1913992134   18.6241548857068 489.048423449819 
! Port Impedance         50               0                50               0                
11                             0.202676374507048 28.0248816251096 0.938981074018968 -62.7585679015374 0.938981074018968 -62.7585679015374 0.202631575424848 28.3723339627178 
! Gamma         19.8477979345308 537.961884396939 20.0518815148857 537.797217947242 
! Port Impedance         50               0                50               0                
12                             0.210917477708215 22.8442958406876 0.934095669557397 -68.2896637636001 0.934095669557397 -68.2896637636001 0.210878999271345 23.2328622147319 
! Gamma         21.2801549452205 586.709719262637 21.4921092053244 586.523116439777 
! Port Impedance         50               0                50               0                
13                             0.217100227176675 17.679236409676  0.929508480252445 -73.7968506355603 0.929508480252446 -73.7968506355603 0.217070364510166 18.1116551329901 
! Gamma         22.7220635588145 635.434646756084 22.9422196538954 635.225737183199 
! Port Impedance         50               0                50               0                
14                             0.22121481330636 12.535977322919  0.925273241956126 -79.2844975373624 0.925273241956126 -79.2844975373624 0.221196132413946 13.0154646772054 
! Gamma         24.1710541356708 684.1369062208   24.3997082756759 683.905231082246 
! Port Impedance         50               0                50               0                
15                             0.223266173473758 7.41870771619061 0.921427474894939 -84.7574497469247 0.921427474894938 -84.7574497469247 0.223261560869702 7.94905155005663 
! Gamma         25.6248470500076 732.81711859856  25.8622515499171 732.562157101067 
! Port Impedance         50               0                50               0                
16                             0.223271936377962 2.33059987467348 0.917992444870096 -90.2208337850819 0.917992444870096 -90.2208337850819 0.223284654562157 2.91628420213275 
! Gamma         27.0813861522941 781.476193406196 27.3277453585254 781.197382755882 
! Port Impedance         50               0                50               0                
17                             0.221261051297825 -2.72529067109731 0.914973557621485 -95.6798707591914 0.914973557621485 -95.6798707591914 0.221294806082187 -2.07891899630319 
! Gamma         28.5388542632999 830.115251753614 28.7943235168032 829.812002624759 
! Port Impedance         50               0                50               0                
18                             0.217273099271565 -7.74516924119873 0.912361089715088 -101.139700193764 0.912361089715088 -101.139700193764 0.217332127567172 -7.03167529944781 
! Gamma         29.995675809568  878.735562393931 30.2603623918147 878.407271093184 
! Port Impedance         50               0                50               0                
19                             0.211358250011953 -12.7235810559863 0.910131192598856 -106.605215662493 0.910131192598856 -106.605215662493 0.211447440817545 -11.935133023415 
! Gamma         31.4505102912295 927.338488873682 31.7244756933124 926.984546902846 
! Port Impedance         50               0                50               0                
20                             0.203577804150181 -17.6522982179542 0.908247137059513 -112.080913231339 0.908247137059513 -112.080913231339 0.203702872205782 -16.7792362653334 
! Gamma         32.9022395446614 975.925446271655 33.185502591635  975.545247965025 
! Port Impedance         50               0                50               0                
21                             0.194005246425561 -22.5188316307788 0.906660789750455 -117.570753932656 0.906660789750455 -117.570753932656 0.194172989462594 -21.5490531862096 
! Gamma         34.3499509472903 1024.49786649739 34.64249149225   1024.09081495736 
! Port Impedance         50               0                50               0                
22                             0.182727738050083 -27.3042652269079 0.905314328913202 -123.078041983419 0.905314328913203 -123.078041983419 0.182946428713233 -26.2223265385326 
! Gamma         35.7929183356909 1073.05717096456 36.0946812588004 1072.62268261264 
! Port Impedance         50               0                50               0                
23                             0.169848007708485 -31.9798662631591 0.904142211510333 -128.605321185989 0.904142211510333 -128.605321185989 0.170128008169004 -30.7656317586666 
! Gamma         37.2305819427269 1121.60474966275 37.5414812754453 1121.14225766175 
! Port Impedance         50               0                50               0                
24                             0.155486693330442 -36.5014151298671 0.903073397814802 -134.154292668257 0.903073397814802 -134.154292668257 0.155841451543438 -35.1279610209339 
! Gamma         38.6625282973768 1170.14194567448 38.9824513407154 1169.65090232175 
! Port Impedance         50               0                50               0                
25                             0.139785419806403 -40.799068892534 0.902033822384989 -139.725757652692 0.902033822384989 -139.725757652692 0.140233150272271 -39.2293115109213 
! Gamma         40.0884708218405 1218.67004423955 40.4172821356641 1218.14992254448 
! Port Impedance         50               0                50               0                
26                             0.12291148128292 -44.7578844931343 0.900949073936277 -145.319589150104 0.900949073936276 -145.319589150104 0.123478144182402 -42.9389499286122 
! Gamma         41.5082315516525 1267.19026553882 41.8457767578179 1266.64056010863 
! Port Impedance         50               0                50               0                
27                             0.105066555569704 -48.177120512737 0.899747213792913 -150.934736147911 0.899747213792913 -150.934736147911 0.105791470605739 -46.0306211504661 
! Gamma         42.9217243026351 1315.70376054472 43.2678336177556 1315.1239878756  
! Port Impedance         50               0                50               0                
28                             0.086506527596908 -50.6760284021937 0.898361627992931 -156.569262966405 0.898361627992931 -156.569262966405 0.0874537710347895 -48.081165525675 
! Gamma         44.3289394051285 1364.21160919604 44.683430893465  1363.60130753889 
! Port Impedance         50               0                50               0                
29                             0.0675956594640418 -51.4459336825242 0.896733777335129 -162.220424906657 0.896733777335128 -162.220424906657 0.0688792085271754 -48.2139890414085 
! Gamma         45.7299300811369 1412.7148205143  46.0926125983507 1412.07354931091 
! Port Impedance         50               0                50               0                
30                             0.0489866510292362 -48.4884035047849 0.894815688881447 -167.884779254575 0.894815688881447 -167.884779254575 0.0508287120131635 -44.370395028697 
! Gamma         47.1248004368012 1461.21433400299 47.4954762509914 1460.54167310024 
! Port Impedance         50               0                50               0                
31                             0.0323705102528893 -36.0066919410734 0.892572027103083 -173.558328270411 0.892572027103083 -173.558328270411 0.0351944394429598 -31.26206790779  
! Gamma         48.5136949830066 1509.71102220063 48.8921620896718 1509.00657079524 
! Port Impedance         50               0                50               0                
32                             0.0235068509006246 -1.48885509246758 0.889981596536928 -179.236688305229 0.889981596536928 -179.236688305229 0.0273601305949564 -0.44471343556033 
! Gamma         49.8967896038564 1558.20569380627 50.2828437418714 1557.46906926643 
! Port Impedance         50               0                50               0                
33                             0.0302816192904856 36.1006560376172 0.88703816102535 175.084723046705 0.88703816102535 175.084723046705 0.0334155430088515 32.373318823062  
! Gamma         51.2742838399321 1606.69909737281 51.6677202162468 1605.929933949   
! Port Impedance         50               0                50               0                
34                             0.0459183940782673 50.836335037078  0.883750514302714 169.410491496636 0.883750514302715 169.410491496636 0.0480664898612248 47.3186145177145 
! Gamma         52.6463943543234 1655.19192522417 53.0470091084826 1654.38987270545 
! Port Impedance         50               0                50               0                
35                             0.063725707455579 54.6631508407592 0.880141796583489 163.745012846624 0.880141796583489 163.745012846624 0.0653000637932595 51.9826942596986 
! Gamma         54.0133494542615 1703.68481747662 54.4209408806923 1702.84953981926 
! Port Impedance         50               0                50               0                
36                             0.0817217282204593 54.312709789355  0.876248113478863 158.092312368462 0.876248113478863 158.092312368462 0.0829590184061642 52.2748760297681 
! Gamma         55.3753845432688 1752.1783661008  55.7897540968549 1751.30954006817 
! Port Impedance         50               0                50               0                
37                             0.0991993587316441 52.0795953800175 0.87211656816101 152.455886005037 0.87211656816101 152.455886005037 0.10022343600089 50.5059120941124 
! Gamma         56.7327383854751 1800.67311888043 57.1536914872313 1799.77043269198 
! Port Impedance         50               0                50               0                
38                             0.115795430658267 48.871179222865  0.867802857822501 146.83857071311  0.8678028578225  146.83857071311  0.116677364661881 47.6446782974904 
! Gamma         58.0856500646472 1849.16958320606 58.5129967408768 1848.23273525874 
! Port Impedance         50               0                50               0                
39                             0.131273211723898 45.1074430602897 0.86336860662829 141.242448833958 0.863368606628289 141.242448833958 0.132058025720425 44.1527974660389 
! Gamma         59.4343565546346 1897.66822974373 59.867911913897  1896.69692735672 
! Port Impedance         50               0                50               0                
40                             0.145458526084331 41.0075108503195 0.858878608561258 135.66878880796  0.858878608561258 135.66878880796  0.146177358491681 40.2751280369684 
! Gamma         60.7790907842964 1946.16949582855 61.2186753773932 1945.16345407229 
! Port Impedance         50               0                50               0                
41                             0.15821663122495 36.69640952736   0.854398137276151 130.118022078311 0.85439813727615 130.118022078311 0.158892731213252 36.1529039961876 
! Gamma         62.1200801552903 1994.67378867759 62.5655202109686 1993.63272925761 
! Port Impedance         50               0                50               0                
42                             0.169442078221381 32.250490322062  0.849990451083328 124.589753994159 0.849990451083328 124.589753994159 0.170094004654037 31.873113210424  
! Gamma         63.4575454109173 2043.18148834257 63.9086729789008 2042.10513857303 
! Port Impedance         50               0                50               0                
43                             0.179053290688968 27.7189200002932 0.845714585500271 119.082805006087 0.84571458550027 119.082805006087 0.179696745049604 27.4922398050545 
! Gamma         64.7916998078954 2091.69295046125 65.2483528253816 2090.58104228778 
! Port Impedance         50               0                50               0                
44                             0.186989058984946 23.134779480567  0.841623489204114 113.595277539556 0.841623489204114 113.595277539556 0.187638008551454 23.048657786967  
! Gamma         66.1227485461809 2140.2085087442  66.5847708328213 2139.06077785895 
! Port Impedance         50               0                50               0                
45                             0.193205931537451 18.5212499939602 0.837762526459333 108.124643574097 0.837762526459333 108.124643574097 0.193873347159924 18.5695901998606 
! Gamma         67.4508884041316 2188.72847729113 67.9181295996618 2187.54466230393 
! Port Impedance         50               0                50               0                
46                             0.197676136092047 13.8953196814313 0.834168343249132 102.66784804016  0.834168343249132 102.66784804016  0.198374516784704 14.075300244675  
! Gamma         68.7763075348849 2237.25315265921 69.2486229993745 2236.03299435197 
! Port Impedance         50               0                50               0                
47                             0.200385915068573 9.27017946162336 0.830868076866745 97.2214235405195 0.830868076866745 97.2214235405195 0.20112769812982 9.58181013673628 
! Gamma         70.0991854087209 2285.7828157738  70.5764360781874 2284.52605640007 
! Port Impedance         50               0                50               0                
48                             0.201334255007828 4.65691318405586 0.827878879606818 91.7816124552318 0.827878879606818 91.7816124552318 0.202132174003613 5.10282452452415 
! Gamma         71.4196928577694 2334.317733625   71.9017450784061 2333.02411629355 
! Port Impedance         50               0                50               0                
49                             0.200532021277683 0.065823001819772 0.825207725337272 86.3444930700969 0.825207725337272 86.3444930700969 0.201399456999269 0.651242836438633 
! Gamma         72.7379922078375 2382.85816082764 73.2247175474166 2381.52742892582 
! Port Impedance         50               0                50               0                
50                             0.198001513281694 -4.49239310290736 0.822851471406798 80.9061068671123 0.822851471406797 80.9061068671123 0.198952876844347 -3.75949339458757 
! Gamma         74.0542374770936 2431.40434101055 74.5455125193797 2430.03623768508 
! Port Impedance         50               0                50               0                
51                             0.193776449733191 -9.00544487429132 0.820797155480527 75.4625844822932 0.820797155480527 75.4625844822932 0.194827639268871 -8.11402868679619 
! Gamma         75.3685746288523 2479.95650806683 75.86428075618   2478.55077576839 
! Port Impedance         50               0                50               0                
52                             0.187902387500876 -13.4580694820555 0.819022515418873 70.0102679908234 0.819022515418873 70.0102679908234 0.189071370255854 -12.3935108430409 
! Gamma         76.6811418518839 2528.51488727856 77.1811650267461 2527.07126733229 
! Port Impedance         50               0                50               0                
53                             0.180437578914197 -17.8302590074101 0.81749672815815 64.5458271709667 0.81749672815815 64.5458271709667 0.181745171208116 -16.5735650520118 
! Gamma         77.9920698782267 2577.07969632345 78.4963004159007 2575.59792855622 
! Port Impedance         50               0                50               0                
54                             0.171454291032071 -22.0947827032353 0.816181368949285 59.0663672145331 0.816181368949285 59.0663672145331 0.172925244876567 -20.6214827995051 
! Gamma         79.3014823104746 2625.65114617842 79.8098146528822 2624.13096858058 
! Port Impedance         50               0                50               0                
55                             0.161040664234745 -26.213481238143 0.815031593760792 53.5695250579576 0.815031593760792 53.5695250579576 0.162705231793169 -24.4920681011852 
! Gamma         80.6094959625306 2674.22944191587 81.1218284546188 2672.67059034046 
! Port Impedance         50               0                50               0                
56                             0.149303313845832 -30.1313970698355 0.813997544016702 48.0535512080092 0.813997544016702 48.0535512080092 0.151199568655202 -28.1211729570605 
! Gamma         81.9162212043402 2722.81478342919 82.4324558742401 2721.21699131739 
! Port Impedance         50               0                50               0                
57                             0.136371158986932 -33.7669699003218 0.813025963695415 42.5173736819073 0.813025963695415 42.5173736819073 0.138548541134204 -31.4151608482613 
! Gamma         83.2217623050574 2771.4073660656  83.7418046467117 2769.77036421314 
! Port Impedance         50               0                50               0                
58                             0.122401592953316 -36.9947634717334 0.812062004240121 36.9606406327677 0.812062004240121 36.9606406327677 0.124926474808765 -34.2329687886345 
! Gamma         84.5262177729399 2820.00738119745 85.0499765381152 2818.33089753817 
! Port Impedance         50               0                50               0                
59                             0.107591584331128 -39.6132837974422 0.811051173944805 31.3837384490901 0.811051173944805 31.3837384490901 0.110556207555094 -36.3542851760863 
! Gamma         85.8296806876916 2868.61501672894 86.3570676832121 2866.89877614446 
! Port Impedance         50               0                50               0                
60                             0.0921999779886084 -41.281394434582 0.809941367422508 25.7877827087163 0.809941367422508 25.7877827087163 0.0957368788469396 -37.4211342928508 
! Gamma         87.1322390236704 2917.23045754371 87.6631689158753 2915.47418169669 
! Port Impedance         50               0                50               0                
61                             0.0765971308002263 -41.3855184741779 0.808684890394501 20.1745803604164 0.808684890394501 20.1745803604164 0.0809011836930599 -36.8295697432391 
! Gamma         88.433975963895  2965.8538859019  88.9683660918323 2964.05729309002 
! Port Impedance         50               0                50               0                
62                             0.0613859379134188 -38.755369167602 0.8072403787838  14.546562893333  0.807240378783801 14.546562893333  0.0667384199725247 -33.543709357489 
! Gamma         89.7349701981721 3014.48548179117 90.2727403939098 3012.64828681952 
! Port Impedance         50               0                50               0                
63                             0.0477120778989922 -31.1333303130526 0.805574502428478 8.90669194156451 0.805574502428478 8.90669194156451 0.0544477058164383 -25.9074917630341 
! Gamma         91.0352962113991 3063.12542324694 91.5763686328125 3061.24733730421 
! Port Impedance         50               0                50               0                
64                             0.0379399924450837 -15.1303627810272 0.803663345475761 3.25834061159663 0.803663345475761 3.25834061159663 0.0460884223048148 -12.2178211594523 
! Gamma         92.3350245610134 3111.7738866161  92.8793235253106 3109.85461718833 
! Port Impedance         50               0                50               0                
65                             0.0357505485146963 8.51217326935226 0.801493369110515 -2.39484438512334 0.801493369110515 -2.39484438512334 0.04420008198617 6.06248770452624 
! Gamma         93.6342221334133 3160.43104681316 94.1816739661514 3158.47029758473 
! Port Impedance         50               0                50               0                
66                             0.0422557537897268 28.7499948871109 0.799061887339607 -8.04909319871546 0.799061887339607 -8.04909319871546 0.0494605707118493 22.4695508627389 
! Gamma         94.9329523932247 3209.09707752652 95.4834852828575 3207.09454831191 
! Port Impedance         50               0                50               0                
67                             0.0541083380058734 39.7757986871938 0.796377020669942 -13.7006682620121 0.796377020669941 -13.7006682620121 0.0597367109990585 32.8390194928285 
! Gamma         96.2312756199043 3257.77215141113 96.7848194784893 3255.72753808504 
! Port Impedance         50               0                50               0                
68                             0.0681561575249303 44.3367815621188 0.793457131610716 -19.3460166090632 0.793457131610716 -19.3460166090632 0.0725336665484832 37.9642479051542 
! Gamma         97.529249122636  3306.45644025716 98.0857354586077 3304.36943469983 
! Port Impedance         50               0                50               0                
69                             0.0828058561355775 45.3335706102422 0.790329784928933 -24.9819112918682 0.790329784928933 -24.9819112918682 0.0862756274621653 39.7125399403683 
! Gamma         98.826927453504  3355.15011513257 99.3862892477578 3353.02040518294 
! Port Impedance         50               0                50               0                
70                             0.0972785669012444 44.3499987020065 0.787030309447769 -30.605575015512 0.787030309447769 -30.605575015512 0.100084592718871 39.4007697187489 
! Gamma         100.124362600249 3403.8533465179  100.686534191676 3401.68061592414 
! Port Impedance         50               0                50               0                
71                             0.111139560324616 42.2032028964006 0.783600062799135 -36.2147805381622 0.783600062799135 -36.2147805381622 0.113445837233117 37.8082133329199 
! Gamma         101.421604169949 3452.56630441353 101.98652114839  3450.3502328049  
! Port Impedance         50               0                50               0                
72                             0.124111056541488 39.3356310927399 0.780084513529259 -41.8079241551131 0.780084513529259 -41.8079241551131 0.126029323545687 35.391564944655  
! Gamma         102.718699561739 3501.28915844493 103.286298665236 3499.02942129633 
! Port Impedance         50               0                50               0                
73                             0.135997834797536 36.0025654329706 0.77653125589281 -47.3840704542518 0.776531255892809 -47.3840704542518 0.137606545859693 32.4274032082344 
! Gamma         104.015694126777 3550.02207794124 104.585913147887 3547.71834655295 
! Port Impedance         50               0                50               0                
74                             0.146655083399646 32.3603011856189 0.772988063006078 -52.9429683200762 0.772988063006078 -52.9429683200762 0.148011089290906 29.0903954628367 
! Gamma         105.312631318128 3598.76523202191 105.885409015679 3596.41717349547 
! Port Impedance         50               0                50               0                
75                             0.155973014108236 28.5096524425322 0.769501066561288 -58.4850396770962 0.769501066561288 -58.4850396770961 0.15711870016932 25.4955165527    
! Gamma         106.609552833576 3647.51878965762 107.184828847477 3645.12606687653 
! Port Impedance         50               0                50               0                
76                             0.163868650665372 24.5187370972973 0.766113129485542 -64.0113436203671 0.766113129485541 -64.0113436203671 0.164836376437671 21.7214681008495 
! Gamma         107.906498743629 3696.2829197288  108.484213518978 3693.84519134535 
! Port Impedance         50               0                50               0                
77                             0.1702809358201  20.4356413741055 0.7628624551993  -69.5235193352301 0.7628624551993  -69.5235193352301 0.171095862845256 17.8242066658448 
! Gamma         109.203507615379 3745.05779107921 109.783602329438 3742.57471150491 
! Port Impedance         50               0                50               0                
78                             0.175167519534682 16.2958829209513 0.759781456322272 -75.0237115763338 0.759781456322272 -75.0237115763338 0.175849453955652 13.8451243117364 
! Gamma         110.500616627064 3793.84357255734 111.083033120674 3791.3147919516  
! Port Impedance         50               0                50               0                
79                             0.178502509777118 12.127084481715  0.756895888760407 -80.5144825392591 0.756895888760406 -80.5144825392591 0.179067125225588 9.81625292934    
! Gamma         111.797861671162 3842.64043305769 112.382542386908 3840.06559732043 
! Port Impedance         50               0                50               0                
80                             0.18027486864217 7.95211036210173 0.754224245074606 -85.9987137925543 0.754224245074606 -85.9987137925543 0.180734526786925 5.76377797532728 
! Gamma         113.095277455541 3891.44854155497 113.682165378381 3888.82729232459 
! Port Impedance         50               0                50               0                
81                             0.180487317920966 3.79135821854505 0.751777393961194 -91.47950164589  0.751777393961194 -91.47950164589  0.180851618357127 1.71059435642494 
! Gamma         114.39289759321  3940.2680671358  114.981936195853 3937.60004177846 
! Port Impedance         50               0                50               0                
82                             0.179155701595088 -0.335377665855185 0.749558449997563 -96.960049008766 0.749558449997563 -96.960049008766 0.179431841649431 -2.32164726734162 
! Gamma         115.690754688423 3989.09917902435 116.281887880402 3986.38401063677 
! Port Impedance         50               0                50               0                
83                             0.17630879268801 -4.40718759271468 0.747562858449563 -102.44355649771 0.747562858449564 -102.44355649771 0.17650178591221 -6.31069679857132 
! Gamma         116.988880415763 4037.94204660159 117.582052494727 4035.17936400999 
! Port Impedance         50               0                50               0                