! Touchstone file exported from HFSS 2024.2.0
!        File:           C:/Users/vaintrug/Documents/Ansoft_Workspace/Comparaison_Calculs_HFSS/1_VarPort.aedt
!        Generated:      03:22:18 PM Jan 21, 2025
!        Design:         1_NoDeembed_FacePortFree
!        Project:        1_VarPort
!        Setup:          Setup1
!        Solution:       Sweep
!
! Variables:
!        $Lenght = 2000um
!        $PortSize = 140um
!        Gap = 30um
!        Th = 2um
!        X_centralStrip = 20um
!        X_masse = 200um
!        Y_Sub = 2mm
!        Z_Box = 400um
!        Z_Sub = 200um
!
# GHz S MA R 50.000000
! Terminal data exported
! Port[1] = 1
! Port[2] = 2
1                              0.0276163236761442 61.1186802066841 0.98538541681254 -5.90529422391662 0.985385416812539 -5.90529422391663 0.0276146891951107 61.0940982835344 
! Gamma         5.86195813709679 50.0429598828536 5.80705193878081 49.9136504303091 
! Port Impedance         50               0                50               0                
2                              0.0491297068573705 66.6705230055952 0.981819033427773 -11.6718726022844 0.981819033427772 -11.6718726022844 0.049118976727343 66.6327852423588 
! Gamma         7.62838310823867 98.7003644046762 7.54716223365106 98.4906798637488 
! Port Impedance         50               0                50               0                
3                              0.0708689869599946 65.640662338011  0.97822173869045 -17.4393668436341 0.978221738690449 -17.4393668436341 0.0708482446319345 65.5898943667816 
! Gamma         9.03380002875968 147.415793454369 8.94204297031476 147.123135092143 
! Port Impedance         50               0                50               0                
4                              0.0920822560726504 62.4202098135377 0.974220331145497 -23.1978649463812 0.974220331145497 -23.1978649463812 0.0920501161175034 62.3552489936894 
! Gamma         10.3587982725043 196.202057497332 10.2597091860736 195.823230627908 
! Port Impedance         50               0                50               0                
5                              0.112330481213581 58.2493534353923 0.969794390399782 -28.9381329225204 0.969794390399783 -28.9381329225204 0.112285241432861 58.1693430949346 
! Gamma         11.6761832643076 245.020343563699 11.5704140677254 244.553812588265 
! Port Impedance         50               0                50               0                
6                              0.131315656920348 53.6041952298521 0.96500794297354 -34.6538330558121 0.965007942973541 -34.6538330558122 0.131255498273876 53.508390093177  
! Gamma         13.0071218611754 293.847565072723 12.894604462139  293.292627356526 
! Port Impedance         50               0                50               0                
7                              0.148813561383898 48.7046091860085 0.959954718266644 -40.3407441404064 0.959954718266644 -40.3407441404064 0.148736623014101 48.5922509249691 
! Gamma         14.3579128917276 342.670583235318 14.2383462060758 342.026991804768 
! Port Impedance         50               0                50               0                
8                              0.164649870047106 43.6656699504517 0.954739975439448 -45.9963948770738 0.954739975439449 -45.9963948770737 0.164554283727143 43.5359205433752 
! Gamma         15.7295934813917 391.481473416522 15.6026162688628 390.749248773242 
! Port Impedance         50               0                50               0                
9                              0.178689715537893 38.5530193552686 0.94947109527024 -51.6198706545678 0.94947109527024 -51.6198706545677 0.178573623119499 38.404916766366  
! Gamma         17.1210260775718 440.275241280294 16.9862855670543 439.454567293201 
! Port Impedance         50               0                50               0                
10                             0.190831520060827 33.4063357884499 0.944251314140822 -57.2116582890333 0.944251314140822 -57.2116582890333 0.190693080162208 33.2387563800167 
! Gamma         18.5300973712934 489.048713879298 18.387277317632  488.139876031124 
! Port Impedance         50               0                50               0                
11                             0.201002255769267 28.2505033369809 0.939175189937806 -62.7734840261577 0.939175189937806 -62.7734840261576 0.200839641479343 28.0621237110995 
! Gamma         19.9542675771421 537.799956194621 19.8030993923111 536.80330271687  
! Port Impedance         50               0                50               0                
12                             0.209153298639939 23.1014735777309 0.934325347603975 -68.3081352705091 0.934325347603975 -68.3081352705091 0.2089646866551  22.8907273980701 
! Gamma         21.3908587696132 586.527930894097 21.231124661902  585.443846874702 
! Port Impedance         50               0                50               0                
13                             0.215256712166584 17.969630428227  0.929770278397471 -73.8192690991418 0.929770278397471 -73.8192690991418 0.215040263166265 17.7346565422602 
! Gamma         22.8372212751197 635.232277561603 22.668753548618  634.06116688817  
! Port Impedance         50               0                50               0                
14                             0.219302010741988 12.8619009940531 0.925563014613053 -79.3112140645058 0.925563014613053 -79.3112140645058 0.219055840278291 12.6004789006131 
! Gamma         24.2908346338533 683.913155077075 24.1135129207078 682.655427493519 
! Port Impedance         50               0                50               0                
15                             0.221293495570046 7.7832103358502  0.921740514164349 -84.7887717140673 0.921740514164348 -84.7887717140673 0.221015634042914 7.49267801322264 
! Gamma         25.749368869574  732.571120717002 25.5631162125384 731.227182314387 
! Port Impedance         50               0                50               0                
16                             0.221248237649178 2.73759435259623 0.918323604451093 -90.2570228368048 0.918323604451093 -90.2570228368048 0.220936576917263 2.4147417208688  
! Gamma         27.2107194174992 781.207033085479 27.0154977574465 779.777279356828 
! Port Impedance         50               0                50               0                
17                             0.219194745350164 -2.27084327763244 0.91531735929196 -95.7211418572091 0.91531735929196 -95.7211418572091 0.218846967961935 -2.62991486156819 
! Gamma         28.673023564685  829.821972280737 28.4688289962428 828.306783105304 
! Port Impedance         50               0                50               0                
18                             0.215172316660075 -7.23699782290859 0.912711813694632 -101.186221504952 0.912711813694633 -101.186221504952 0.214785801324185 -7.63706398730997 
! Gamma         30.1346637292883 878.417173712481 29.9215217500278 876.816909884045 
! Port Impedance         50               0                50               0                
19                             0.209231045619385 -12.1537317530616 0.910482954038317 -106.657109069615 0.910482954038316 -106.657109069615 0.208802738789767 -12.6007023799526 
! Gamma         31.594261375082  926.99397345199  31.3722222748056 925.30897441449  
! Port Impedance         50               0                50               0                
20                             0.201432431139538 -17.0105969000036 0.908593951530338 -112.138255307582 0.908593951530338 -112.138255307582 0.200958668541084 -17.5118743539489 
! Gamma         33.0506644406459 975.553763578642 32.8197989793234 973.78434610938  
! Port Impedance         50               0                50               0                
21                             0.191850528977225 -21.7920922810806 0.906996630712334 -117.633577222768 0.906996630712334 -117.633577222768 0.191326780747252 -22.3570811478524 
! Gamma         34.5029306096412 1024.09795621008 34.263326024262  1022.24441387757 
! Port Impedance         50               0                50               0                
22                             0.180573600779406 -26.4750922473069 0.905633180067859 -123.146336487963 0.90563318006786 -123.146336487963 0.17999409613706 -27.1159424612706 
! Gamma         35.9503081310037 1072.6279551509  35.7020645237515 1070.69055839479 
! Port Impedance         50               0                50               0                
23                             0.167706267554437 -31.02478163212  0.904438116592265 -128.679035970514 0.904438116592266 -128.679035970514 0.167063422496084 -31.7575014289397 
! Gamma         37.3922155479337 1121.14513414219 37.135442685837  1119.12413076357 
! Port Impedance         50               0                50               0                
24                             0.153372313922437 -35.3878115384771 0.903340509835331 -134.233337534071 0.903340509835332 -134.233337534071 0.152655823230646 -36.2339844603849 
! Gamma         38.8282213410179 1169.65082064412 38.5630358475826 1167.54643667017 
! Port Impedance         50               0                50               0                
25                             0.13771862601702 -39.4800128538309 0.902266453755579 -139.810004838252 0.902266453755579 -139.810004838252 0.136913954751628 -40.4695310979717 
! Gamma         40.2580241994638 1218.14628437149 39.9845471359332 1215.95872513075 
! Port Impedance         50               0                50               0                
26                             0.120921580884734 -43.1627381650171 0.901141748180145 -145.4088750383  0.901141748180145 -145.4088750383  0.120007318427451 -44.3382842649508 
! Gamma         41.6814344002744 1266.63272962308 41.3997892251761 1264.36218097911 
! Port Impedance         50               0                50               0                
27                             0.103199429476468 -46.1934532652019 0.899894718909578 -151.028862969142 0.899894718909577 -151.028862969142 0.10214234072358 -47.6179624205988 
! Gamma         43.0983566203915 1315.11129077082 42.8086674620159 1312.75792049571 
! Port Impedance         50               0                50               0                
28                             0.0848408285577266 -48.1120127243042 0.898459070879355 -156.668000491679 0.898459070879355 -156.668000491679 0.0835858873697763 -49.8805154158038 
! Gamma         44.5087743288218 1363.58303024218 44.2111645816776 1361.14698935668 
! Port Impedance         50               0                50               0                
29                             0.0662823389920661 -47.9468163881357 0.896776638164248 -162.323512137808 0.896776638164247 -162.323512137808 0.064731136834747 -50.1982470638165 
! Gamma         45.9127358261585 1412.04893841677 45.6073270083604 1409.53036257846 
! Port Impedance         50               0                50               0                
30                             0.0483591063149707 -43.3616103083382 0.894799873927496 -167.991926116102 0.894799873927495 -167.991926116102 0.0463232789395518 -46.2215946694954 
! Gamma         47.3103419307489 1460.50993496246 46.9972527846255 1457.9089458238  
! Port Impedance         50               0                50               0                
31                             0.0332510663270643 -28.3017788701385 0.892493918311324 -173.669217317914 0.892493918311324 -173.669217317914 0.0304225207154346 -31.0968595298753 
! Gamma         48.7017352139404 1508.96687127525 48.381081009153  1506.28357777733 
! Port Impedance         50               0                50               0                
32                             0.0270621358919778 5.08454434737146 0.88983809613581 -179.350976469779 0.88983809613581 -179.350976469779 0.0238095904831528 6.66780998645316 
! Gamma         50.0870907144199 1557.42053364432 49.7589827354698 1554.65503324067 
! Port Impedance         50               0                50               0                
33                             0.0349416769539988 36.0435646698006 0.886826729715387 174.967402664302 0.886826729715387 174.967402664302 0.0327392531897547 40.4810434830297 
! Gamma         51.466607993004  1605.87164691956 51.1311531670946 1603.02402675078 
! Port Impedance         50               0                50               0                
34                             0.0503767881208397 48.9663740615841 0.883469202015498 169.290527758174 0.883469202015498 169.290527758174 0.0490577842619334 52.7152154093073 
! Gamma         52.8405043999144 1654.32087847527 52.4978050609096 1651.39121643222 
! Port Impedance         50               0                50               0                
35                             0.0679412216225978 52.6967696655955 0.879789265437717 163.622814611931 0.879789265437716 163.622814611931 0.0671118730140875 55.66073651672   
! Gamma         54.2090094306483 1702.76884229782 53.859163177159  1699.75720800693 
! Port Impedance         50               0                50               0                
36                             0.0857830827826804 52.5273655486644 0.87582365327153 157.968306408664 0.87582365327153 157.968306408664 0.0852458327278575 54.9553870087443 
! Gamma         55.572360028537  1751.21610308919 55.2154596736326 1748.12255884447 
! Port Impedance         50               0                50               0                
37                             0.103173824842283 50.4938200162383 0.871620105425512 152.330514752395 0.871620105425513 152.330514752395 0.102828910535842 52.5595494625022 
! Gamma         56.9307967242584 1799.66318030546 56.5669303121384 1796.48778187054 
! Port Impedance         50               0                50               0                
38                             0.119728885624108 47.4600966178829 0.867234960032436 146.712289793563 0.867234960032436 146.712289793563 0.119520923970725 49.2720498346158 
! Gamma         58.2845604965471 1848.11055203819 57.9138113748971 1844.85334940847 
! Port Impedance         50               0                50               0                
39                             0.13519826984826 43.8433121571635 0.862730483452479 141.115724321248 0.86273048345248 141.115724321248 0.135093897113772 45.4712688965093 
! Gamma         59.6338902543109 1896.55865871986 59.2563371824071 1893.21969680178 
! Port Impedance         50               0                50               0                
40                             0.149399833287171 39.8671011765505 0.858172112144473 135.542094113702 0.858172112144474 135.542094113702 0.149377690982654 41.358086345485  
! Gamma         60.9790208372661 1945.00790664096 60.5947381379092 1941.58722583944 
! Port Impedance         50               0                50               0                
41                             0.162193901520038 35.6614841706276 0.853625763295107 129.991834386628 0.853625763295107 129.991834386628 0.162239731863058 37.0486878662737 
! Gamma         62.320181478628  1993.4586711859  61.9292391979793 1989.95630796446 
! Port Impedance         50               0                50               0                
42                             0.173471822951665 31.3069588822169 0.849155341883855 124.464550140598 0.849155341883856 124.464550140598 0.17357587280233 32.6148295471371 
! Gamma         63.6575946242977 2041.91129989445 63.2600587239012 2038.32728725197 
! Port Impedance         50               0                50               0                
43                             0.183149807430679 26.8559109426452 0.844820535946723 118.959056699548 0.844820535946723 118.959056699548 0.183305365793527 28.103189132277  
! Gamma         64.9914750841326 2090.36611524417 64.5874076340986 2086.70048313284 
! Port Impedance         50               0                50               0                
44                             0.191164987641589 22.3438822477968 0.840674955078737 113.473445835055 0.840674955078737 113.473445835055 0.19136752191186 23.5454916240188 
! Gamma         66.3220294297045 2138.82341722161 65.9114888071645 2135.07619294215 
! Port Impedance         50               0                50               0                
45                             0.197472545502858 17.7959395707979 0.836764634313796 108.005172514989 0.836764634313796 108.005172514989 0.197719175238697 18.9642207206114 
! Gamma         67.6494556115033 2187.28348567767 67.2324967077247 2183.45469419645 
! Port Impedance         50               0                50               0                
46                             0.202043462812003 13.2305272697087 0.83312689965863 102.551157420462 0.833126899658629 102.551157420462 0.202332636045852 14.3760818873239 
! Gamma         68.9739427491663 2235.74658245561 68.5506171690191 2231.83624670669 
! Port Impedance         50               0                50               0                
47                             0.204862741406138 8.66197044322451 0.829789574032657 97.107900769143  0.829789574032657 97.107900769143  0.205194040975002 9.79427017078299 
! Gamma         70.2956710657099 2284.21295332753 69.8660273252685 2280.22109447334 
! Port Impedance         50               0                50               0                
48                             0.205928051751258 4.10224050563707 0.826770493317412 91.671603558605  0.826770493317412 91.671603558605  0.206302092253732 5.23009417047393 
! Gamma         71.6148119269456 2332.68282976094 71.1788956478798 2328.60946741357 
! Port Impedance         50               0                50               0                
49                             0.205248810087923 -0.43766914184281 0.82407730042788 86.238292927901  0.824077300427879 86.238292927901  0.205667205134723 0.694270849775495 
! Gamma         72.9315279773238 2381.15643049152 72.4893820752247 2377.00158290706 
! Port Impedance         50               0                50               0                
50                             0.202845693972502 -4.94653633782833 0.82170748917074 80.8039488624905 0.82170748917074 80.8039488624906 0.203311085726268 -3.80190548556235 
! Gamma         74.2459733420434 2429.63396295349 73.7976382024504 2425.39764720792 
! Port Impedance         50               0                50               0                
51                             0.198750603776163 -9.41170493264485 0.819648677083176 75.3646298286369 0.819648677083176 75.3646298286369 0.199266756314815 -8.24536125528194 
! Gamma         75.5582938781045 2478.11562455933 75.1038075292841 2473.79785669349 
! Port Impedance         50               0                50               0                
52                             0.193007073908523 -13.817720241106 0.817879095333315 69.9165951082011 0.817879095333314 69.9165951082011 0.19357904125829 -12.6198502481837 
! Gamma         76.8686274700837 2526.60160383922 76.4080257455194 2522.20239899553 
! Port Impedance         50               0                50               0                
53                             0.185671139819802 -18.1446083437174 0.81636829217779 64.4564215904018 0.81636829217779 64.4564215904019 0.186305530901942 -16.9041694703137 
! Gamma         78.1771043490791 2575.09208148767 77.710421038434  2570.61145400686 
! Port Impedance         50               0                50               0                
54                             0.17681268525458 -22.3655113228239 0.815078052534658 58.9811125914618 0.815078052534658 58.9811125914618 0.177518064302636 -21.0696893047317 
! Gamma         79.4838474289285 2623.58723126831 79.0111144257608 2619.02519479177 
! Port Impedance         50               0                50               0                
55                             0.166517345248534 -26.4432081473548 0.813963538477382 53.4881959725947 0.813963538477382 53.4881959725947 0.167304831956169 -25.0767167339542 
! Gamma         80.7889726569408 2672.08722083031 80.310220092126  2667.44378839086 
! Port Impedance         50               0                50               0                
56                             0.15488915801816 -30.324696663142 0.812974652686124 47.9758084860496 0.812974652686124 47.9758084860495 0.155773334343137 -28.868855318222 
! Gamma         82.0925893655844 2720.59221245208 81.6078457359269 2715.86739653025 
! Port Impedance         50               0                50               0                
57                             0.142054415875495 -33.9323108523635 0.812057618526503 42.4427629908344 0.812057618526503 42.4427629908344 0.143054719683515 -32.3638368107477 
! Gamma         83.394800624635  2769.10236368556 82.904092908311  2764.29617627458 
! Port Impedance         50               0                50               0                
58                             0.128167729826707 -37.1484074261273 0.811156756487067 36.8885950629844 0.811156756487067 36.8885950629844 0.129310642762668 -35.437922651471 
! Gamma         84.6957035891287 2817.61782792465 84.1990573611467 2812.73028058694 
! Port Impedance         50               0                50               0                
59                             0.11342260651533 -39.787574603512 0.810216418153336 31.3135856655734 0.810216418153336 31.3135856655734 0.114745159222443 -37.89813968409  
! Gamma         85.9953898406249 2866.13875493873 85.4928293720835 2861.16985883438 
! Port Impedance         50               0                50               0                
60                             0.0980719190066635 -41.5434896747002 0.809183017579094 25.7187570618757 0.809183017579095 25.7187570618757 0.0996273538017989 -39.4307102592822 
! Gamma         87.2939457195359 2914.66529129821 86.7854940750187 2909.61505723777 
! Port Impedance         50               0                50               0                
61                             0.0824715139502747 -41.8824202219477 0.808007078640208 20.1058400548238 0.808007078640208 20.1058400548238 0.0843381025840568 -39.5023638409317 
! Gamma         88.5914526424689 2963.19758080715 88.0771317658344 2958.06601926865 
! Port Impedance         50               0                50               0                
62                             0.0671810690435549 -39.8263866976954 0.806645199106826 14.4772119730454 0.806645199106826 14.4772119730454 0.0694730319873842 -37.1751552881331 
! Gamma         89.8879874132678 3011.73576483464 89.3678182148073 3006.52288599588 
! Port Impedance         50               0                50               0                
63                             0.0532077280968378 -33.5644242688019 0.805061821366467 8.83580646234869 0.805061821366467 8.83580646234869 0.056071283952208 -30.8316390632821 
! Gamma         91.1836225166967 3060.27998263824 90.6576249413465 3054.98579639646 
! Port Impedance         50               0                50               0                
64                             0.0425252783216473 -20.3138851229455 0.803230698983866 3.1849979984919  0.803230698983867 3.1849979984919  0.0460309353903841 -18.2992435468495 
! Gamma         92.4784263970458 3108.83037164424 91.9466195017395 3103.45488763002 
! Port Impedance         50               0                50               0                
65                             0.0383685875869747 0.53758840302155 0.801135959460218 -2.47153412420315 0.801135959460217 -2.47153412420315 0.0421647897484432 0.41336299858833 
! Gamma         93.7724637282993 3157.38706767842 93.2348657416383 3151.93029527671 
! Port Impedance         50               0                50               0                
66                             0.0426759454093142 21.0987832181443 0.798772686658147 -8.12995595469119 0.798772686658147 -8.12995595469119 0.046043076222903 18.9440487879146 
! Gamma         95.0657956653479 3205.95020519344 94.5224240488542 3200.41215354697 
! Port Impedance         50               0                50               0                
67                             0.0531686895752285 33.9137356635628 0.796146979391867 -13.7864356517907 0.796146979391867 -13.7864356517907 0.055824655899337 31.180901259794  
! Gamma         96.3584800825899 3254.51991744161 95.8093515849408 3248.90059546851 
! Port Impedance         50               0                50               0                
68                             0.0665913519221268 39.9130395252563 0.793275481781452 -19.4372987397512 0.793275481781452 -19.4372987397512 0.068647151089574 37.3336108749166 
! Gamma         97.6505718015129 3303.09633665269 97.0957025089884 3297.39575304802 
! Port Impedance         50               0                50               0                
69                             0.0810305201171511 41.8529080033219 0.790184421108076 -25.0791738613915 0.790184421108075 -25.0791738613915 0.0826459892517771 39.5772110131426 
! Gamma         98.9421228006483 3351.679594167   98.3815281834884 3345.89775740875 
! Port Impedance         50               0                50               0                
70                             0.0955236017024322 41.4865968684591 0.786908224821012 -30.7091218409572 0.786908224821012 -30.7091218409572 0.0968168317057934 39.4937949542104 
! Gamma         100.233182415767 3400.26982056365 99.6668773706244 3394.40673891982 
! Port Impedance         50               0                50               0                
71                             0.10954415817841 39.7594683376862 0.783487815551979 -36.3247422285756 0.783487815551979 -36.3247422285756 0.11059396088063 37.9979823267566 
! Gamma         101.52379752655  3448.86714576619 100.951796414721 3442.92282730109 
! Port Impedance         50               0                50               0                
72                             0.122766341644387 37.1892518392752 0.779968698641176 -41.9242532426304 0.779968698641176 -41.9242532426304 0.123625176838637 35.6108274063113 
! Gamma         102.814012732766 3497.47169914306 102.236329417752 3491.44615171239 
! Port Impedance         50               0                50               0                
73                             0.134967449348096 34.0746885826788 0.776398959923745 -47.506542933202 0.776398959923745 -47.506542933202 0.135670913805203 32.6401867212968 
! Gamma         104.103870515873 3546.08360957727 103.520518394311 3539.97684083747 
! Port Impedance         50               0                50               0                
74                             0.145985488430406 30.5979290946418 0.772827283513124 -53.0711912255505 0.772827283513124 -53.0711912255505 0.146558224283429 29.2765553815435 
! Gamma         105.393411393296 3594.70300554591 104.804403426078 3588.51502295581 
! Port Impedance         50               0                50               0                
75                             0.155699016395734 26.8757731760624 0.769301082706837 -58.6184641075514 0.769301082706837 -58.6184641075513 0.156158309268001 25.6432141603899 
! Gamma         106.682674061667 3643.3300151787  106.088022801193 3637.06082599589 
! Port Impedance         50               0                50               0                
76                             0.164016570528551 22.9865806289008 0.765864815401155 -64.1492824672542 0.765864815401155 -64.1492824672542 0.164374566948856 21.8233121771223 
! Gamma         107.971695526398 3691.96476630297 107.371413143271 3685.61437758929 
! Port Impedance         50               0                50               0                
77                             0.170870524689716 18.9851870742307 0.762558532106561 -69.6651689151427 0.76255853210656 -69.6651689151427 0.171135623830505 17.8751568328624 
! Gamma         109.26051122995  3740.60738649456 108.654609533079 3734.17580511485 
! Port Impedance         50               0                50               0                
78                             0.176213161716366 14.9116344229087 0.759416682854447 -75.1681763693426 0.759416682854448 -75.1681763693426 0.176390900729876 13.8412723632579 
! Gamma         110.549155163527 3789.2580031082  109.937645624092 3782.74523573467 
! Port Impedance         50               0                50               0                
79                             0.18001397713584 10.7965775540677 0.756467191174482 -80.6608022740382 0.756467191174482 -80.6608022740382 0.180107594229876 9.75404985541208 
! Gamma         111.837659974824 3837.91674331225 111.220553745605 3831.32279642315 
! Port Impedance         50               0                50               0                
80                             0.182257768457841 6.66484998351105 0.753730790080992 -86.1458921824753 0.753730790080992 -86.1458921824753 0.182268550952563 5.63948181579584 
! Gamma         113.126057067177 3886.58373411578 112.503365000279 3879.90861399468 
! Port Impedance         50               0                50               0                
81                             0.182943309561332 2.53800132972583 0.751220606910455 -91.6265361412992 0.751220606910455 -91.6265361412992 0.182870789258458 1.51981134405409 
! Gamma         114.414376692727 3935.25910238508 113.786109354621 3928.50281512569 
! Port Impedance         50               0                50               0                
82                             0.182082523959075 -1.56371507666672 0.748941980403772 -97.1059609687238 0.748941980403772 -97.1059609687238 0.181924554551312 -2.58441150585458 
! Gamma         115.702648035877 3983.94297486348 115.068815724033 3977.10552636815 
! Port Impedance         50               0                50               0                
83                             0.179700125414588 -5.61959161980079 0.746892493652868 -102.587421197609 0.746892493652868 -102.587421197609 0.179452858205962 -6.65254337380392 
! Gamma         116.990899293982 4032.63547818608 116.351512050165 4025.71687416784 
! Port Impedance         50               0                50               0                