! Touchstone file exported from HFSS 2024.2.0
!        File:           C:/Users/vaintrug/Documents/Ansoft_Workspace/Comparaison_Calculs_HFSS/1_VarPort.aedt
!        Generated:      03:22:19 PM Jan 21, 2025
!        Design:         1_NoDeembed_FacePortFree
!        Project:        1_VarPort
!        Setup:          Setup1
!        Solution:       Sweep
!
! Variables:
!        $Lenght = 2000um
!        $PortSize = 300um
!        Gap = 30um
!        Th = 2um
!        X_centralStrip = 20um
!        X_masse = 200um
!        Y_Sub = 2mm
!        Z_Box = 400um
!        Z_Sub = 200um
!
# GHz S MA R 50.000000
! Terminal data exported
! Port[1] = 1
! Port[2] = 2
1                              0.0273891060189564 60.9891291281306 0.985406251597717 -5.89735543816063 0.985406251597718 -5.89735543816063 0.0273981491947492 60.9369190450997 
! Gamma         6.02381078079458 49.9747603086709 5.93937487509307 50.0979963203978 
! Port Impedance         50               0                50               0                
2                              0.0487043932069662 66.6996913235907 0.981886712452167 -11.6591564427631 0.981886712452166 -11.6591564427631 0.0487230848616513 66.5713167681929 
! Gamma         7.88869892177024 98.5536002094892 7.77599825793234 98.8130411785899 
! Port Impedance         50               0                50               0                
3                              0.0702782945872704 65.7422043106546 0.978323800114916 -17.4226165309565 0.978323800114917 -17.4226165309565 0.0702997616094938 65.539158443935  
! Gamma         9.36935765689009 147.101260871501 9.24091043226866 147.519348154127 
! Port Impedance         50               0                50               0                
4                              0.0913415694068585 62.5694161255634 0.974353896239088 -23.1773243048179 0.974353896239089 -23.177324304818 0.0913593871334507 62.292724962144  
! Gamma         10.7350060932218 195.708280553181 10.6002546240317 196.286534420575 
! Port Impedance         50               0                50               0                
5                              0.111454984523436 58.4379984661591 0.969959922802355 -28.9140827803748 0.969959922802355 -28.9140827803748 0.111463303523997 58.0875673343598 
! Gamma         12.0779421530789 244.350413025548 11.9407862944039 245.087629636898 
! Port Impedance         50               0                50               0                
6                              0.130322754357642 53.8288976050298 0.965206036835208 -34.626633880786 0.965206036835207 -34.626633880786 0.130316205529825 53.403917555097  
! Gamma         13.4284881631969 293.005275964293 13.2904667996284 293.900332485411 
! Port Impedance         50               0                50               0                
7                              0.147722758251441 48.9637395385757 0.960184865555976 -40.3108078247381 0.960184865555974 -40.3108078247381 0.14769639572754 48.4628751604012 
! Gamma         14.79686856503   341.658577660049 14.6584956954061 342.710733601102 
! Port Impedance         50               0                50               0                
8                              0.163482289047253 43.9583790341024 0.955000131897598 -45.9641494610943 0.955000131897598 -45.9641494610942 0.163431537571911 43.3798369238877 
! Gamma         16.1858542045673 390.301314672891 16.0471709131301 391.510159322124 
! Port Impedance         50               0                50               0                
9                              0.177467634042144 38.8788897628791 0.949757611419484 -51.5857277857894 0.949757611419484 -51.5857277857894 0.17738823115153 38.2204293249029 
! Gamma         17.5950807359184 438.927713099037 17.4559028297641 440.293083188191 
! Port Impedance         50               0                50               0                
10                             0.189578003308447 33.7652474118458 0.944559059238073 -57.1759851475991 0.944559059238073 -57.175985147599 0.189465935451368 33.0241580668495 
! Gamma         19.0227579483967 487.534072994543 18.8827964486343 489.055987093896 
! Port Impedance         50               0                50               0                
11                             0.199740897080009 28.6425812388737 0.939497786006223 -62.7365800712488 0.939497786006221 -62.7365800712488 0.199592330518551 27.8156342043975 
! Gamma         20.4664460820896 536.118115920565 20.3253703287941 537.796727730422 
! Port Impedance         50               0                50               0                
12                             0.207908059109947 23.5270701918088 0.934655465968158 -68.2702138648712 0.934655465968159 -68.2702138648713 0.207719266073868 22.6104462252188 
! Gamma         21.923452407218  584.678591783783 21.7809254489867 586.514156416142 
! Port Impedance         50               0                50               0                
13                             0.214051844380895 18.4293226310801 0.93009996855562 -73.780443925476 0.930099968555622 -73.780443925476 0.213819123793487 17.4185130218023 
! Gamma         23.3910530711316 633.215021333941 23.2467523059364 635.207870606087 
! Port Impedance         50               0                50               0                
14                             0.21816204673616 13.356493444078  0.925884045966046 -79.2714901469549 0.925884045966045 -79.2714901469549 0.217881637252999 12.2461684610243 
! Gamma         24.8666240431884 681.727513492279 24.720253619317  683.878037075371 
! Port Impedance         50               0                50               0                
15                             0.220243277002941 8.31374090816835 0.922044718500478 -84.748040821302 0.922044718500478 -84.7480408213019 0.219911258137573 7.09757643953024 
! Gamma         26.3477194440328 730.216626918713 26.1990177131085 732.525257232757 
! Port Impedance         50               0                50               0                
16                             0.220312965455215 3.30533927152004 0.918603212126138 -90.2150630435553 0.918603212126138 -90.2150630435553 0.21992514005815 1.97578788244524 
! Gamma         27.8321164693136 778.683260445481 27.6808601941439 781.15046041077  
! Port Impedance         50               0                50               0                
17                             0.218400026670253 -1.66436668527952 0.915565325053169 -95.6776210882135 0.915565325053169 -95.6776210882135 0.217951774631926 -3.1163805339982 
! Gamma         29.3178378637209 827.128563885562 29.1638440657205 829.754816728222 
! Port Impedance         50               0                50               0                
18                             0.214544188273136 -6.59003351139096 0.912922129286731 -101.140704930858 0.91292212928673 -101.140704930858 0.214030276422154 -8.17552410088435 
! Gamma         30.8031587671114 875.55386491857  30.6462850011042 878.339665562107 
! Port Impedance         50               0                50               0                
19                             0.208795955077713 -11.4642973141362 0.910650944374355 -106.60907029296 0.910650944374355 -106.60907029296 0.208210280702399 -13.1967794655481 
! Gamma         32.2866026867819 923.960608871497 32.1267460977236 926.90645673618  
! Port Impedance         50               0                50               0                
20                             0.201217159973815 -16.2765151763212 0.908716549465646 -112.087091271534 0.908716549465646 -112.087091271534 0.200552393294252 -18.172786927068 
! Gamma         33.7669299975942 972.350309780494 33.6040255008024 975.456702714059 
! Port Impedance         50               0                50               0                
21                             0.191882045723245 -21.0110607627982 0.907072622937593 -117.578626769605 0.907072622937593 -117.578626769605 0.191129116283911 -23.0923171261585 
! Gamma         35.2431216108834 1020.72451089528 35.077139443896  1023.99194024394 
! Port Impedance         50               0                50               0                
22                             0.180878835545436 -25.6448285477961 0.905663413633464 -123.086902401261 0.905663413633465 -123.086902401262 0.180026171980263 -27.9382853170194 
! Gamma         36.7143597416285 1069.08475357768 36.5453026089004 1072.51370011944 
! Port Impedance         50               0                50               0                
23                             0.168311802713083 -30.1433270144569 0.904425652724397 -128.614410182248 0.904425652724399 -128.614410182248 0.167344170529883 -32.6846544977395 
! Gamma         38.180007297997  1117.43255323201 38.0079072512891 1121.02348402317 
! Port Impedance         50               0                50               0                
24                             0.154303982399477 -34.454176203931 0.903290709663141 -134.162828983913 0.90329070966314 -134.162828983913 0.153200640490011 -37.2912622572718 
! Gamma         39.6395869633646 1165.769381278   39.464502174152  1169.52274721373 
! Port Impedance         50               0                50               0                
25                             0.139000985453769 -38.4955984485968 0.902186979912651 -139.732969199188 0.902186979912651 -139.732969199188 0.137732631667786 -41.6945704921985 
! Gamma         41.0927607813113 1214.09665218708 40.9147723059267 1218.01288627606 
! Port Impedance         50               0                50               0                
26                             0.122577141224016 -42.1346451059782 0.901042467642329 -145.324745248091 0.901042467642329 -145.324745248091 0.121100579025742 -45.7898600067757 
! Gamma         42.5393107874293 1262.41571466069 42.3585194044681 1266.49523083332 
! Port Impedance         50               0                50               0                
27                             0.105247186635733 -45.1427487021165 0.89978749623495 -150.937179247474 0.89978749623495 -150.937179247474 0.103495402415146 -49.3938881421481 
! Gamma         43.9791210175029 1310.72784621336 43.7956442062491 1314.97103864731 
! Port Impedance         50               0                50               0                
28                             0.0872924273201747 -47.0964789289071 0.898357447350974 -156.568438298478 0.898357447350974 -156.568438298478 0.0851546779253679 -52.1578494644012 
! Gamma         45.4121611025605 1359.0342504344  45.2261302016115 1363.44149331651 
! Port Impedance         50               0                50               0                
29                             0.069128924607226 -47.1316291315622 0.896695400822081 -162.215906422525 0.896695400822081 -162.215906422525 0.0664073098056246 -53.3351667265912 
! Gamma         46.8384715322705 1407.33605637481 46.650029124889  1411.90770396452 
! Port Impedance         50               0                50               0                
30                             0.0515154364060918 -43.2688535611314 0.89475452834447 -167.876290232491 0.89475452834447 -167.876290232491 0.0478252740658089 -51.045356153444 
! Gamma         48.2581505841598 1455.63431955046 48.0674480985332 1460.37070654111 
! Port Impedance         50               0                50               0                
31                             0.0362811744007079 -30.6391099165645 0.892500088905388 -173.545755168267 0.892500088905389 -173.545755168267 0.03089108964514 -39.51442142315  
! Gamma         49.6713428644615 1503.93002409871 49.4785384137494 1508.83146622044 
! Port Impedance         50               0                50               0                
32                             0.0283724486736308 -1.77801959007886 0.889910886370862 -179.220086785697 0.889910886370862 -179.220086785697 0.0211971802786365 -3.67230399119152 
! Gamma         51.0782293581037 1552.22408584735 50.8834858271016 1557.29088060271 
! Port Impedance         50               0                50               0                
33                             0.0335305215572626 30.1028202355693 0.886980080259777 175.10513050006  0.886980080259777 175.10513050006  0.0278654593930612 37.5376166832962 
! Gamma         52.4790188935506 1600.5173559067  52.2825022424712 1605.74978344143 
! Port Impedance         50               0                50               0                
34                             0.0473753474265595 45.7000001577131 0.883715286701859 169.434326385462 0.88371528670186 169.434326385462 0.0436524288888317 52.5073656926071 
! Gamma         53.8739408584488 1648.81062469238 53.6758186519598 1654.20894874434 
! Port Impedance         50               0                50               0                
35                             0.0640565813062  50.9212526861237 0.880137962266011 163.771759306536 0.880137962266011 163.771759306536 0.0614322820265032 56.0128104094464 
! Gamma         55.2632390729996 1697.10462603569 55.0636792081863 1702.6690949521  
! Port Impedance         50               0                50               0                
36                             0.0813012355085287 51.5618221026179 0.876282121020745 158.121342544843 0.876282121020745 158.121342544843 0.0793119843388814 55.3901777545286 
! Gamma         56.6471666586214 1745.40004142513 56.4463362850589 1751.13088919529 
! Port Impedance         50               0                50               0                
37                             0.0982330324200803 50.0162130740323 0.87219248671823 152.486490623546 0.872192486718229 152.486490623546 0.0966433838930124 52.9584554899962 
! Gamma         58.0259817941377 1793.69750420246 57.824046406224  1799.5949514853  
! Port Impedance         50               0                50               0                
38                             0.114412936590424 47.3057548964832 0.867922220452995 146.869993039926 0.867922220452995 146.869993039926 0.113092167445255 49.6038027428821 
! Gamma         59.3999442475031 1841.99760357788 59.1970669268415 1848.06185874157 
! Port Impedance         50               0                50               0                
39                             0.12956806818779 43.9198765784918 0.863530385203412 141.273920147455 0.863530385203412 141.273920147455 0.128436938489853 45.7291693825176 
! Gamma         60.7693125626813 1890.30088855425 60.5656533647664 1896.53214866327 
! Port Impedance         50               0                50               0                
40                             0.143505504963641 40.1186312741173 0.859079311219663 135.699563564112 0.859079311219662 135.699563564112 0.142512441033209 41.5426531824381 
! Gamma         62.134341820787  1938.60787159488 61.930057280461  1945.00632337981 
! Port Impedance         50               0                50               0                
41                             0.156079978870362 36.0520142145325 0.854632012291671 130.147411168616 0.854632012291671 130.147411168616 0.155189459951881 37.1622572856428 
! Gamma         63.4952818812436 1986.9190320858  63.2905246296561 1993.48485286025 
! Port Impedance         50               0                50               0                
42                             0.167179686786056 31.8123188099043 0.850249776799148 124.61715478033  0.850249776799148 124.61715478033  0.166366104639468 32.6597795382165 
! Gamma         64.8523760385628 2035.23481958346 64.6472945074249 2041.96817812141 
! Port Impedance         50               0                50               0                
43                             0.176718961387716 27.4593632403074 0.845990024570651 119.107727141656 0.845990024570651 119.107727141656 0.17596313854556 28.0813687650876 
! Gamma         66.2058600095813 2083.55565677432 66.0005982279434 2090.45671413422 
! Port Impedance         50               0                50               0                
44                             0.184633820547433 23.033658453947  0.841904486317358 113.617363907566 0.841904486317357 113.617363907566 0.183920912252958 23.4580660386519 
! Gamma         67.5559612195929 2131.88194226431 67.3506586701878 2138.95085255606 
! Port Impedance         50               0                50               0                
45                             0.190878873608948 18.5637866199594 0.838037731276454 108.143685940638 0.838037731276453 108.143685940638 0.190197031750175 18.8116517822858 
! Gamma         68.9028983197043 2180.2140530856  68.6976898579397 2187.45096419452 
! Port Impedance         50               0                50               0                
46                             0.195424984916509 14.0708229106225 0.834426043693386 102.683797241458 0.834426043693386 102.683797241458 0.194764460544402 14.1581387741052 
! Gamma         70.2468808963663 2228.55234704529 70.0418967228337 2235.95740128941 
! Port Impedance         50               0                50               0                
47                             0.198257464465146 9.57117748366495 0.831096631386704 97.2343941696215 0.831096631386704 97.2343941696215 0.197609970491357 9.51002740651945 
! Gamma         71.5881093398717 2276.89716478967 71.3834750136215 2284.47049953902 
! Port Impedance         50               0                50               0                
48                             0.199374706804501 5.07857478458044 0.82806714002627 91.7918821015091 0.82806714002627 91.7918821015091 0.198732936622502 4.87789777595802 
! Gamma         72.9267748500285 2325.248831764   72.7226113280928 2332.99058000579 
! Port Impedance         50               0                50               0                
49                             0.198787258636297 0.605573630669131 0.82534544398502 86.3524962118876 0.825345443985019 86.3524962118876 0.198144495624896 0.2716608127822  
! Gamma         74.2630595257953 2373.60765992028 74.0594832470294 2381.51795077164 
! Port Impedance         50               0                50               0                
50                             0.196517315054005 -3.83511925778747 0.822929687168525 80.9124235404711 0.822929687168524 80.9124235404711 0.19586708867064 -4.29832760692108 
! Gamma         75.5971365528449 2421.97394931235 75.3942595294833 2430.0529084922  
! Port Impedance         50               0                50               0                
51                             0.192598647961658 -8.22935528969249 0.820808553214858 75.4679238606824 0.820808553214858 75.4679238606825 0.191934402178352 -8.8201339544239 
! Gamma         76.9291704377397 2470.34798950189 76.7271003747935 2478.59573976604 
! Port Impedance         50               0                50               0                
52                             0.187076970610639 -12.5600949412051 0.818961751925372 70.0154470523138 0.818961751925372 70.0154470523138 0.186391713289065 -13.2789434307883 
! Gamma         78.2593173028988 2518.73006084133 78.0581577244296 2527.14672236796 
! Port Impedance         50               0                50               0                
53                             0.180010748693657 -16.8055952880659 0.817360715863347 64.5517447022167 0.817360715863347 64.5517447022167 0.179296647110637 -17.6553955872627 
! Gamma         79.5877252008826 2567.12043564088 79.3875755923075 2575.70612636994 
! Port Impedance         50               0                50               0                
54                             0.171472491612507 -20.9369351104043 0.815969506092392 59.0739735257333 0.815969506092392 59.0739735257333 0.170720368792526 -21.9232781106415 
! Gamma         80.9145344629736 2615.51937919032 80.7154904176113 2624.27421515988 
! Port Impedance         50               0                50               0                
55                             0.161550615523883 -24.9143959616497 0.814745927576   53.5797879702515 0.814745927576   53.5797879702515 0.160749281102781 -26.0461166902575 
! Gamma         82.2398780592712 2663.9271507045  82.0420314302869 2672.85124631475 
! Port Impedance         50               0                50               0                
56                             0.150352097264405 -28.6818657364912 0.813642851877985 48.0674191120343 0.813642851877984 48.0674191120343 0.149487408491088 -29.9718482916822 
! Gamma         83.5638819671321 2712.34400415329 83.3673210195329 2721.4374724317  
! Port Impedance         50               0                50               0                
57                             0.138006409942652 -32.1577449821996 0.81260973694205 42.5357367541274 0.812609736942049 42.5357367541274 0.137059890151165 -33.6240710048825 
! Gamma         84.8866655375938 2760.77018902691 84.6914751062845 2770.03314184242 
! Port Impedance         50               0                50               0                
58                             0.124671814706587 -35.219457451112 0.811594321069291 36.9842915942986 0.81159432106929 36.9842915942986 0.123618534377184 -36.886936380921 
! Gamma         86.2083418696638 2809.20595099516 86.0146035106162 2818.63849927088 
! Port Impedance         50               0                50               0                
59                             0.11054638050853 -37.6758095646072 0.81054445168447 31.4133345301859 0.81054445168447 31.413334530186  0.109351591374912 -39.5776873916908 
! Gamma         87.529018170424  2857.65153253808 87.3368103149073 2867.25378641183 
! Port Impedance         50               0                50               0                
60                             0.0958891259338525 -39.2154268683362 0.809409990798101 25.8238106994237 0.809409990798101 25.8238106994237 0.0945027986899919 -41.3940233601601 
! Gamma         88.8487961107658 2906.10717347089 88.6581942130732 2915.87924245673 
! Port Impedance         50               0                50               0                
61                             0.0810640450868103 -39.307337919526 0.808144720817871 20.2173267262099 0.80814472081787 20.2173267262099 0.0794121681242371 -41.8081841845012 
! Gamma         90.1677721721191 2954.57311144799 89.9788488543209 2964.51510456631 
! Port Impedance         50               0                50               0                
62                             0.0666379112407452 -37.0117237449294 0.806708159452308 14.5960908817447 0.806708159452309 14.5960908817446 0.0646108356364645 -39.8494555306721 
! Gamma         91.4860379783873 3003.04958239335 91.2988631720123 3013.16160828883 
! Port Impedance         50               0                50               0                
63                             0.0536006879133431 -30.6881028853064 0.805067184045508 8.96282737209602 0.805067184045509 8.962827372096   0.0510522677852188 -33.7052227018518 
! Gamma         92.8036806190862 3051.53682090782 92.618321700362  3061.81898795099 
! Port Impedance         50               0                50               0                
64                             0.0437778198066327 -18.0735245705699 0.803197366270766 3.3206676298336  0.803197366270766 3.32066762983362 0.040615712474705 -20.5293669670224 
! Gamma         94.1207829553585 3100.0350606266  93.9373048740548 3110.48747698497 
! Port Impedance         50               0                50               0                
65                             0.0399236850672177 0.95366724461576 0.801083929196736 -2.32697687717092 0.801083929196736 -2.32697687717094 0.0364357650168645 0.477462344777845 
! Gamma         95.4374239151609 3148.54453453132 95.2558893214777 3159.16730825211 
! Port Impedance         50               0                50               0                
66                             0.0436145646397287 19.8686798427355 0.798722260171632 -7.9765543888687 0.798722260171633 -7.97655438886869 0.0404639480304592 21.3665962636576 
! Gamma         96.7536787724077 3197.06547525752 96.5741481351945 3207.85871431522 
! Port Impedance         50               0                50               0                
67                             0.0530370298567626 32.3060073743867 0.796117942881898 -13.6245182021173 0.796117942881897 -13.6245182021173 0.0505035749802499 34.3762126943044 
! Gamma         98.0696194145193 3245.59811534764 97.8921511338549 3256.56192769434 
! Port Impedance         50               0                50               0                
68                             0.0653724136505355 38.5227642069874 0.793286306908325 -19.2674702133852 0.793286306908326 -19.2674702133852 0.0633656507162762 40.4394359791238 
! Gamma         99.3853145942283 3294.14268750381 99.2099651095953 3305.27718110239 
! Port Impedance         50               0                50               0                
69                             0.0788076379541491 40.7815493858327 0.790251528714125 -24.9022953947977 0.790251528714126 -24.9022953947977 0.077187280004664 42.3900647107158 
! Gamma         100.700830168888 3342.69942480371 100.527654059237 3354.00470765123 
! Port Impedance         50               0                50               0                
70                             0.092377057912332 40.7006170979039 0.787045349711668 -30.5262806817225 0.787045349711666 -30.5262806817226 0.0910392326631611 42.0165665161432 
! Gamma         102.016229327203 3391.26856089755 101.845279408039 3402.74474104318 
! Port Impedance         50               0                50               0                
71                             0.105540411871019 39.2056153111936 0.78370550103232 -36.1372129974772 0.78370550103232 -36.1372129974772 0.104416263210894 40.2764995602992 
! Gamma         103.331572801692 3439.85033020658 103.162900214286 3451.49751575748 
! Port Impedance         50               0                50               0                
72                             0.117962459063499 36.820346471077  0.780273938429831 -41.733452707544 0.780273938429832 -41.733452707544 0.117006614493149 37.6916040477722 
! Gamma         104.646919071617 3488.44496808382 104.48057336661  3500.26326720994 
! Port Impedance         50               0                50               0                
73                             0.129415521039617 33.8529564187312 0.776794993718668 -47.3139805116109 0.776794993718668 -47.3139805116109 0.128597523749496 34.5618389463001 
! Gamma         105.962324550717 3537.05271098141 105.798353769968 3549.04223190788 
! Port Impedance         50               0                50               0                
74                             0.139735425362763 30.4936005249762 0.773313542247184 -52.8784174329716 0.773313542247182 -52.8784174329716 0.139034353362382 31.0696122486026 
! Gamma         107.277843769837 3585.6737966021  107.116294516325 3597.8346475975  
! Port Impedance         50               0                50               0                
75                             0.14880014868235 26.8651570301431 0.76987327146731 -58.4270190208617 0.769873271467309 -58.4270190208617 0.148201295502312 27.3316633492555 
! Gamma         108.593529541278 3634.30846403971 108.434447050474 3646.6407533979  
! Port Impedance         50               0                50               0                
76                             0.156518538614417 23.0504770078189 0.766515116632633 -63.9606460089383 0.766515116632633 -63.9606460089383 0.156011323231518 23.4262065653991 
! Gamma         109.909433122093 3682.95695390879 109.752861322824 3695.46078992756 
! Port Impedance         50               0                50               0                
77                             0.162823788276361 19.1077148974464 0.76327590913903 -69.4807144573769 0.76327590913903 -69.4807144573769 0.162400395404862 19.4079308500584 
! Gamma         111.225604358553 3731.61950848214 111.071585935361 3744.29499943416 
! Port Impedance         50               0                50               0                
78                             0.167669317511917 15.0793895379993 0.760187263654092 -74.9891288297937 0.760187263654092 -74.9891288297937 0.167323779996333 15.3167572608899 
! Gamma         112.542091831247 3780.29637180599 112.390668276379 3793.1436259131  
! Port Impedance         50               0                50               0                
79                             0.17102598914178 10.998028471285  0.757274713884516 -80.4882015919561 0.757274713884516 -80.4882015919561 0.170753544651617 11.1832502981329 
! Gamma         113.858942985359 3828.98778983057 113.710154648724 3842.00691521643 
! Port Impedance         50               0                50               0                
80                             0.172880159229764 6.88989935753203 0.754557094669407 -85.9805628250997 0.754557094669407 -85.9805628250997 0.172676781493088 7.03217987029401 
! Gamma         115.176204257044 3877.69401051119 115.030090392038 3890.88511517726 
! Port Impedance         50               0                50               0                
81                             0.173232325227099 2.77766329253763 0.75204616032715 -91.469063124311 0.752046160327149 -91.469063124311 0.173094369065158 2.88505310997541 
! Gamma         116.493921189564 3926.41528393788 116.350519995563 3939.77847570801 
! Port Impedance         50               0                50               0                
82                             0.17209626185642 -1.31755392610789 0.74974642542753 -96.9566727679394 0.74974642542753 -96.9566727679394 0.172020184220088 -1.23790163290678 
! Gamma         117.812138545948 3975.15186244689 117.671487204983 3988.68724892643 
! Port Impedance         50               0                50               0                
83                             0.169498596346496 -5.37434541786899 0.747655213573887 -102.446379874633 0.747655213573888 -102.446379874633 0.169480729486659 -5.31598176667117 
! Gamma         119.130900414696 4023.90400072465 118.993035125754 4037.61168924849 
! Port Impedance         50               0                50               0                