! Touchstone file exported from HFSS 2024.2.0
!        File:           C:/Users/vaintrug/Documents/Ansoft_Workspace/Comparaison_Calculs_HFSS/1_VarPort.aedt
!        Generated:      03:22:19 PM Jan 21, 2025
!        Design:         1_NoDeembed_FacePortFree
!        Project:        1_VarPort
!        Setup:          Setup1
!        Solution:       Sweep
!
! Variables:
!        $Lenght = 2000um
!        $PortSize = 340um
!        Gap = 30um
!        Th = 2um
!        X_centralStrip = 20um
!        X_masse = 200um
!        Y_Sub = 2mm
!        Z_Box = 400um
!        Z_Sub = 200um
!
# GHz S MA R 50.000000
! Terminal data exported
! Port[1] = 1
! Port[2] = 2
1                              0.0275827277808861 61.1628049563925 0.985433032032858 -5.892290391789  0.985433032032858 -5.892290391789  0.0275790762571991 61.1808102356462 
! Gamma         5.93371394550663 49.7769479107915 6.0131572149326  50.013058666695  
! Port Impedance         50               0                50               0                
2                              0.0491727940103928 66.7723473147342 0.981931981889336 -11.6520246039634 0.981931981889338 -11.6520246039634 0.049160365509643 66.8208835287204 
! Gamma         7.64983138627054 98.2049131061382 7.87521330976244 98.5786307115898 
! Port Impedance         50               0                50               0                
3                              0.0710057445091764 65.7093010546671 0.978354851450239 -17.4129962539312 0.978354851450239 -17.4129962539312 0.0709862209187584 65.7909519469976 
! Gamma         9.03032787433955 146.704622360621 9.34625447586247 147.137277904293 
! Port Impedance         50               0                50               0                
4                              0.0923004101156105 62.4530435845329 0.974358217742264 -23.1645134734936 0.974358217742264 -23.1645134734936 0.0922764959719965 62.5674706316973 
! Gamma         10.3388024892023 195.274678801255 10.7064962435538 195.760979934005 
! Port Impedance         50               0                50               0                
5                              0.112618494896397 58.2515883389501 0.969930451322981 -28.8974446259919 0.969930451322982 -28.8974446259919 0.112592580066296 58.398691785579  
! Gamma         11.6432731496678 243.875842004171 12.0467003207925 244.421022971929 
! Port Impedance         50               0                50               0                
6                              0.131663641624099 53.579948298627  0.965138652879223 -34.6055355607709 0.965138652879223 -34.6055355607709 0.131637806564256 53.76003504764   
! Gamma         12.9631647899432 292.485314940437 13.3960318109944 293.093925853593 
! Port Impedance         50               0                50               0                
7                              0.149212577115825 48.6564793125616 0.960078021818163 -40.2846112808328 0.960078021818163 -40.2846112808329 0.149188665709481 48.8701911343536 
! Gamma         14.3039511982281 341.090254147133 14.7640684165071 341.765104614217 
! Port Impedance         50               0                50               0                
8                              0.165091507067964 43.595107609453  0.954854728450852 -45.9322282127608 0.954854728450853 -45.9322282127608 0.165071186351626 43.8433733185683 
! Gamma         15.6662109654362 389.682995080758 16.1532039885686 390.425496961752 
! Port Impedance         50               0                50               0                
9                              0.179165908171705 38.4606318495351 0.949576816304718 -51.5474917307154 0.949576816304718 -51.5474917307154 0.179150719433354 38.7446500881085 
! Gamma         17.0485273702164 438.258775666837 17.5628384514178 439.069349117664 
! Port Impedance         50               0                50               0                
10                             0.191334477535342 33.2920743036162 0.944348041081788 -57.1309059473109 0.944348041081788 -57.1309059473109 0.191325883864649 33.6133175740129 
! Gamma         18.4486086827946 486.814635272201 18.9910253069474 487.6930114758   
! Port Impedance         50               0                50               0                
11                             0.201524444548129 28.1137643349331 0.939263376473585 -62.6842138729815 0.939263376473585 -62.6842138729815 0.201523877303384 28.4739989763861 
! Gamma         19.8637994097416 535.348836080294 20.4352171867814 536.294268387937 
! Port Impedance         50               0                50               0                
12                             0.209687442335246 22.9411423021227 0.934405777961467 -68.210219928494 0.934405777961468 -68.210219928494 0.20969634782854 23.3424625939285 
! Gamma         21.2913479101028 583.860525820103 21.892646230731  584.871937895412 
! Port Impedance         50               0                50               0                
13                             0.215795792605021 17.7840826840141 0.929843993216417 -73.7125985552749 0.929843993216417 -73.7125985552749 0.215815680151704 18.2289597600794 
! Gamma         22.7285605846499 632.349518328703 23.360536821121  633.425610320859 
! Port Impedance         50               0                50               0                
14                             0.219839261973608 12.648970678942  0.925631245950452 -79.1956958258911 0.925631245950452 -79.1956958258911 0.21987175484794 13.1403188475793 
! Gamma         24.1728948887762 680.816137054239 24.8362308613532 681.955463615625 
! Port Impedance         50               0                50               0                
15                             0.221822386672097 7.54012407730273 0.921804629139944 -84.6643306508936 0.921804629139945 -84.6643306508936 0.221869278305555 8.08138911901779 
! Gamma         25.6220150602529 729.261094494208 26.3172622994586 730.462123263106 
! Port Impedance         50               0                50               0                
16                             0.221762441236892 2.46086959225078 0.918385057349687 -90.1236007053002 0.918385057349687 -90.1236007053002 0.221825760181364 3.05614610606251 
! Gamma         27.0738228976993 777.685395685694 27.8013991901406 778.94655172292  
! Port Impedance         50               0                50               0                
17                             0.219688088115784 -2.58554553857275 0.915377651776514 -95.5786965338258 0.915377651776513 -95.5786965338258 0.219770177015527 -1.9313571757707 
! Gamma         28.5264710009008 826.090258717268 29.2866638917867 827.409958447103 
! Port Impedance         50               0                50               0                
18                             0.21563870571117 -7.59508080131397 0.912772462625398 -101.034725990869 0.912772462625398 -101.034725990869 0.215742322104973 -6.87606205868797 
! Gamma         29.9783634892003 874.477049099708 30.77133800402   875.8537262707   
! Port Impedance         50               0                50               0                
19                             0.209664360167554 -12.5619557141588 0.910545466220243 -106.496550333495 0.910545466220243 -106.496550333495 0.209792810981936 -11.7708780498424 
! Gamma         31.4281478451518 922.847225731235 32.2539566888969 924.279350985221 
! Port Impedance         50               0                50               0                
20                             0.201826361765168 -17.4774961765831 0.908659804664513 -111.968633032862 0.908659804664514 -111.968633032862 0.201983689925773 -16.6054123812286 
! Gamma         32.8747007248739 971.202296943623 33.7332957843731 972.688392320494 
! Port Impedance         50               0                50               0                
21                             0.192198334708493 -22.3285798559708 0.907067259802669 -117.454902525294 0.907067259802669 -117.454902525294 0.192389587417697 -21.3642391712757 
! Gamma         34.3171099199503 1019.54378522356 35.2083542614943 1021.08243466408 
! Port Impedance         50               0                50               0                
22                             0.180867733098246 -27.095357278615 0.905709968583316 -122.958630668347 0.905709968583316 -122.958630668347 0.181099360969513 -26.0243467615892 
! Gamma         35.7546541834897 1067.87319964761 36.6783340030095 1069.4630561607  
! Port Impedance         50               0                50               0                
23                             0.167937772234032 -31.7476608335225 0.904522391698683 -128.482329358556 0.904522391698683 -128.482329358556 0.168218244594744 -30.5511078259478 
! Gamma         37.1867822107373 1116.19201487755 38.1426183746353 1117.8318049984  
! Port Impedance         50               0                50               0                
24                             0.153529847485909 -36.2389573056069 0.903433541048875 -134.027668487358 0.903433541048875 -134.027668487358 0.153870639125672 -34.8915029785877 
! Gamma         38.6130917527007 1164.50165564479 39.6007506484828 1166.19018182157 
! Port Impedance         50               0                50               0                
25                             0.137786771861422 -40.4954586504379 0.902369454315894 -139.595418947989 0.902369454315894 -139.595418947989 0.138204019609913 -38.9619750008399 
! Gamma         40.0333095015393 1212.80348593362 41.0524130853078 1214.53962716909 
! Port Impedance         50               0                50               0                
26                             0.120877815051149 -44.3950256999851 0.901255878405738 -145.185424586524 0.901255878405738 -145.185424586524 0.1213952553369  -42.6250855308947 
! Gamma         41.4472722567013 1261.09880193439 42.4974071810332 1262.88151312759 
! Port Impedance         50               0                50               0                
27                             0.103008286549923 -47.7226475859225 0.900021090672939 -150.796606681473 0.900021090672939 -150.796606681473 0.103662820841842 -45.640877921603 
! Gamma         42.8549095914324 1309.38882808719 43.9356354074454 1311.21713831155 
! Port Impedance         50               0                50               0                
28                             0.0844417331834958 -50.0661135031097 0.898598752253042 -156.427003607286 0.898598752253041 -156.427003607286 0.0852948412512157 -47.5552624022177 
! Gamma         44.2562282078307 1357.67471551214 45.3670846294533 1359.54772555536 
! Port Impedance         50               0                50               0                
29                             0.0655616950305874 -50.5372720877997 0.89693065716787 -162.073846799558 0.896930657167869 -162.073846799558 0.0667249665630452 -47.4127250385269 
! Gamma         45.6512979964028 1405.95754232243 46.7918112613103 1407.87442166808 
! Port Impedance         50               0                50               0                
30                             0.0470815323513892 -46.9017677824819 0.894969220312796 -167.733672072389 0.894969220312796 -167.733672072389 0.0487764889666783 -42.9257139280683 
! Gamma         47.0402397689809 1454.23831534667 48.2099281488351 1456.19829878044 
! Port Impedance         50               0                50               0                
31                             0.0309353900335057 -32.6333364703931 0.892679542347665 -173.402462887523 0.892679542347665 -173.402462887523 0.0335791051822957 -28.1780476681645 
! Gamma         48.4232145913872 1502.51797283289 49.6215931104606 1504.52035679178 
! Port Impedance         50               0                50               0                
32                             0.0235962998710888 4.29064213028151 0.890040903569749 -179.075819704953 0.890040903569749 -179.075819704953 0.0271096562260622 4.79944299015823 
! Gamma         49.80041459757   1550.79738791004 51.0269990260292 1552.84152674376 
! Port Impedance         50               0                50               0                
33                             0.0318999992906698 39.3630902715458 0.8870475723531  175.250852698458 0.8870475723531  175.250852698458 0.0346828518271003 36.0990290007362 
! Gamma         51.1720551694629 1599.07737242987 52.4263653509272 1601.16267458632 
! Port Impedance         50               0                50               0                
34                             0.0480139836771375 52.3051338346535 0.88370886374049 169.582149693865 0.88370886374049 169.582149693865 0.0499739958199024 49.373753140948  
! Gamma         52.5383683193248 1647.35868113285 53.8199309197062 1649.48460544786 
! Port Impedance         50               0                50               0                
35                             0.0659717860405287 55.4891993461978 0.880048443852401 163.922473580052 0.880048443852399 163.922473580052 0.0674598038330609 53.2854180919844 
! Gamma         53.8995971679039 1695.64201587565 55.2079478990458 1697.8080678826  
! Port Impedance         50               0                50               0                
36                             0.0840299199281709 54.874147247871  0.876102937478641 158.275853030063 0.87610293747864 158.275853030063 0.0852403024135721 53.2231628234718 
! Gamma         55.2559913663242 1743.92802985315 56.5906767478775 1746.13375829198 
! Port Impedance         50               0                50               0                
37                             0.101537510476186 52.5145215849865 0.87191995068964 152.645784410647 0.871919950689641 152.645784410647 0.102572198119998 51.265779896979  
! Gamma         56.6078033510454 1792.21733173748 57.9683820796933 1794.46232516723 
! Port Impedance         50               0                50               0                
38                             0.118148374068196 49.2393305624424 0.86755566017773 147.035102260693 0.86755566017773 147.035102260693 0.119065743680287 48.2940956715801 
! Gamma         57.9552853098366 1840.51048966126 59.3413292747713 1842.79437330097 
! Port Impedance         50               0                50               0                
39                             0.133632264767684 45.4383318142347 0.863072141834335 141.445883790054 0.863072141834336 141.445883790054 0.134468860152297 44.7325968635317 
! Gamma         59.2986867577008 1888.80803496362 60.709781770535  1891.13046769038 
! Port Impedance         50               0                50               0                
40                             0.147818014038446 41.3172503486942 0.858534611929327 135.879389670176 0.858534611929327 135.879389670176 0.148598543903971 40.8085743414909 
! Gamma         60.6382526380804 1937.11046579953 62.0739989041312 1939.47113735169 
! Port Impedance         50               0                50               0                
41                             0.16057252088435 36.9944927369698 0.854008737634992 130.336040947397 0.854008737634992 130.336040947397 0.161314846732601 36.6540992066864 
! Gamma         61.9742218593983 1985.41825040098 63.43423424157   1987.81687879397 
! Port Impedance         50               0                50               0                
42                             0.171791355471777 32.5428456899146 0.849558144399135 124.815429861577 0.849558144399135 124.815429861577 0.172509182132598 32.3509714083985 
! Gamma         63.3068262000565 2033.73183020041 64.7907343042901 2036.1681593006  
! Port Impedance         50               0                50               0                
43                             0.181393629056774 28.009415970866  0.845242211825288 119.316360858417 0.845242211825287 119.316360858417 0.182098061523914 27.9525187141393 
! Gamma         64.6362895213802 2082.05162265062 66.1437376391769 2084.52541997566 
! Port Impedance         50               0                50               0                
44                             0.189318609430124 23.4260182983715 0.841114213038824 113.836917186396 0.841114213038824 113.836917186396 0.190019114811457 23.4950608176883 
! Gamma         65.9628272344444 2130.3780238322  67.4934741606682 2132.88907851624 
! Port Impedance         50               0                50               0                
45                             0.195523163512078 18.8150094568494 0.837219819734298 108.374548113789 0.837219819734298 108.374548113789 0.196228206460225 19.0043892976159 
! Gamma         67.2866459709091 2178.71141083839 68.8401647330042 2181.25953174999 
! Port Impedance         50               0                50               0                
46                             0.199979698916067 14.1928084710618 0.833595969328795 102.926171907648 0.833595969328795 102.926171907648 0.200697193877529 14.4996940512707 
! Gamma         68.6079434224167 2227.05214398205 70.184020932598  2229.63715803434 
! Port Impedance         50               0                50               0                
47                             0.202674505566122 9.57218753735206 0.830270073229793 97.4882901125406 0.830270073229792 97.4882901125406 0.203412168281667 9.99612528296183 
! Gamma         69.9269083282357 2275.40056870714 71.5252449705522 2278.02231931402 
! Port Impedance         50               0                50               0                
48                             0.203606485183755 4.96389925755857 0.827259536245987 92.0571092333602 0.827259536245987 92.0571092333602 0.204372135422508 5.5066159934758  
! Gamma         71.2437205521547 2323.75701744547 72.8640297342332 2326.41536309797 
! Port Impedance         50               0                50               0                
49                             0.202786283915357 0.377961248591073 0.824571555449503 86.62866651219   0.824571555449504 86.62866651219   0.203588136744155 1.0433221202951  
! Gamma         72.5585512562142 2372.12181120429 74.200558929084  2374.81662420519 
! Port Impedance         50               0                50               0                
50                             0.200235845801551 -4.17519582551217 0.822203170663586 81.198957000905  0.822203170663587 81.198957000905  0.201082823220776 -3.38108935446235 
! Gamma         73.8715631422162 2420.49526104215 75.5350072921355 2423.22642636029 
! Port Impedance         50               0                50               0                
51                             0.19598839838023 -8.68355690132111 0.8201415461252  75.764059496851  0.8201415461252  75.764059496851  0.196890494373582 -7.75212535731492 
! Gamma         75.1829107314102 2468.87766940582 76.8675408651309 2471.64508361054 
! Port Impedance         50               0                50               0                
52                             0.190088875240832 -13.1321684239181 0.818364471706691 70.3202590756565 0.81836447170669 70.3202590756565 0.19105761491679 -12.0519471265475 
! Gamma         76.492740692214  2517.26933131586 78.1983173152045 2520.07290165884 
! Port Impedance         50               0                50               0                
53                             0.182594781396226 -17.5013993558149 0.816841080283047 64.8641639403897 0.816841080283047 64.8641639403898 0.183643830671716 -16.2574231854648 
! Gamma         77.8011921830683 2565.6705354394  79.5274862815848 2568.51017900705 
! Port Impedance         50               0                50               0                
54                             0.17357752504128 -21.7645134997334 0.815532783706273 59.3928141149637 0.815532783706273 59.3928141149636 0.174723535492723 -20.3374247304097 
! Gamma         79.1083972200746 2614.08156508419 80.8551897414285 2616.95720802707 
! Port Impedance         50               0                50               0                
55                             0.163124291613164 -25.8840467749542 0.814394431748666 53.9037792096365 0.814394431748666 53.9037792096365 0.164388114108028 -24.2488225039342 
! Gamma         80.4144810481043 2662.50269905935 82.1815623967726 2665.41427593938 
! Port Impedance         50               0                50               0                
56                             0.151340658445265 -29.8060856897197 0.813375695282731 48.3952421523254 0.813375695282731 48.3952421523254 0.15274914484727 -27.930240260767 
! Gamma         81.7195625148516 2710.93421247411 83.5067320600983 2713.8816656351  
! Port Impedance         50               0                50               0                
57                             0.138354420474612 -33.4507431140705 0.812422666192205 42.8660654987232 0.812422666192205 42.8660654987232 0.139943185128821 -31.2918322136063 
! Gamma         83.0237544485339 2759.37637745764 84.83082004267   2762.35965648465 
! Port Impedance         50               0                50               0                
58                             0.124321706257377 -36.6954466990535 0.81147965224142 37.3158368361722 0.811479652241419 37.3158368361722 0.126139493170939 -34.1977714052189 
! Gamma         84.3271640255302 2807.82946379418 86.1539415408372 2810.84852504682 
! Port Impedance         50               0                50               0                
59                             0.109437882871377 -39.3439510761053 0.810491126298608 31.7448899671053 0.810491126298609 31.7448899671053 0.111553670727182 -36.4348829194908 
! Gamma         85.6298931330667 2856.29373952981 87.4762060170818 2859.34854568849 
! Port Impedance         50               0                50               0                
60                             0.0939592666166459 -41.0654513208663 0.809403767900495 26.1542990899618 0.809403767900495 26.1542990899618 0.0964740173134789 -37.6541518913096 
! Gamma         86.932038718972  2904.76947147777 88.7977175662518 2907.85999118546 
! Port Impedance         50               0                50               0                
61                             0.078251016577958 -41.2682024208056 0.808168513971795 20.5458441433912 0.808168513971795 20.5458441433912 0.0813165852774068 -37.2592055777911 
! Gamma         88.2336931346012 2953.25692573227 90.1185752786887 2956.38313324384 
! Port Impedance         50               0                50               0                
62                             0.0629028714015208 -38.8303582108139 0.806742518043265 14.921946829056  0.806742518043265 14.921946829056  0.0667466687027043 -34.2032698481369 
! Gamma         89.5349444633796 3001.75636809359 91.4388735871131 3004.91824297223 
! Port Impedance         50               0                50               0                
63                             0.0490238368268373 -31.5938616006823 0.805090907118508 9.28557850193313 0.805090907118507 9.28557850193313 0.0539422806194492 -26.7343640968117 
! Gamma         90.8358768331763 3050.26806447414 92.7587025977349 3053.46559133472 
! Port Impedance         50               0                50               0                
64                             0.0388921686424748 -16.2442617253881 0.803188225435799 3.64014297636693 0.803188225435799 3.64014297636693 0.045011849142464 -12.8269634524343 
! Gamma         92.1365707215887 3098.79228126728 94.0781484141961 3102.02544954718 
! Port Impedance         50               0                50               0                
65                             0.0361554349622252 6.97391376451098 0.80101946648452 -2.01066085953645 0.80101946648452 -2.01066085953645 0.042740419264618 6.36065643246421 
! Gamma         93.4371032409049 3147.32928571532 95.3972934417551 3150.59808946042 
! Port Impedance         50               0                50               0                
66                             0.0422112087792985 27.5577908552105 0.798580618682755 -7.66299012881833 0.798580618682755 -7.66299012881833 0.0480263283530232 23.7454876800439 
! Gamma         94.7375484148261 3195.87934619039 96.7162166818365 3199.18378388627 
! Port Impedance         50               0                50               0                
67                             0.0538824273811694 39.0592646243677 0.795878683917926 -13.3130151190507 0.795878683917926 -13.3130151190507 0.0585882271464334 34.5789718347978 
! Gamma         96.0379774385106 3244.4427325373  98.0349940088627 3247.7828069506  
! Port Impedance         50               0                50               0                
68                             0.0679197042164214 43.9220394088934 0.7929311677184  -18.957074346288 0.7929311677184  -18.957074346288 0.0717381624523267 39.8214179606054 
! Gamma         97.3384589279867 3293.0197163148  99.3536984379327 3296.39543435144 
! Port Impedance         50               0                50               0                
69                             0.0826427711693723 45.0890759434085 0.789765080024636 -24.5918195538062 0.789765080024635 -24.5918195538063 0.0858301259545914 41.5566049279163 
! Gamma         98.6390591565827 3341.61057108028 100.672400375224 3345.02194368088 
! Port Impedance         50               0                50               0                
70                             0.0972313388330274 44.2009593273319 0.786415521072817 -30.2143435152579 0.786415521072817 -30.2143435152579 0.099972608146013 41.1947453440326 
! Gamma         99.9398422777523 3390.21557264022 101.991167858028 3393.66261467178 
! Port Impedance         50               0                50               0                
71                             0.111231251338781 42.1066596436403 0.782923953394075 -35.8222849299342 0.782923953394075 -35.8222849299342 0.113651641985525 39.5471602387394 
! Gamma         101.240870538105 3438.83499928512 103.310066781301 3442.31772946335 
! Port Impedance         50               0                50               0                
72                             0.124354677310395 39.2651434057691 0.779336275617614 -41.4139064615278 0.779336275617615 -41.4139064615279 0.126540159430069 37.0804736341218 
! Gamma         102.542204479835 3487.46913203219 104.629161115912 3490.9875728391  
! Port Impedance         50               0                50               0                
73                             0.136400597993931 35.9404451100146 0.775700816005768 -46.9881438914009 0.775700816005768 -46.9881438914009 0.138412265649696 34.0736898185033 
! Gamma         103.843903131331 3536.11825484384 105.948513110655 3539.67243247199 
! Port Impedance         50               0                50               0                
74                             0.147220534676968 32.2936276401271 0.77206635472607 -52.5446261925843 0.77206635472607 -52.5446261925843 0.149103517160699 30.7014267265678 
! Gamma         105.146024190335 3584.78265485212 107.268183488916 3588.37259915543 
! Port Impedance         50               0                50               0                
75                             0.156702207941298 28.4281053156358 0.768480266574927 -58.0836679091387 0.768480266574927 -58.0836679091388 0.158491159706928 27.0778622467322 
! Gamma         106.448624196375 3633.46262257161 108.588231631942 3637.08836703019 
! Port Impedance         50               0                50               0                
76                             0.164760845886114 24.4133221664107 0.764986853716395 -63.606236441234 0.764986853716394 -63.6062364412339 0.166483407648854 23.2807402051049 
! Gamma         107.751758694616 3682.15845213023 109.908715756064 3685.82003380612 
! Port Impedance         50               0                50               0                
77                             0.171334011890319 20.2978667992672 0.761625914582591 -69.113897634555 0.761625914582591 -69.113897634555 0.173013067665674 19.3650806846877 
! Gamma         109.055482394998 3730.87044146212 111.229693079789 3734.56790098713 
! Port Impedance         50               0                50               0                
78                             0.176378199190184 16.1171616567299 0.758431573375726 -74.6087434786122 0.758431573375726 -74.6087434786122 0.178033407973194 15.3713960686319 
! Gamma         110.359849321086 3779.59889254837 112.551219983257 3783.33227409354 
! Port Impedance         50               0                50               0                
79                             0.179866421709969 11.8982401587305 0.75543137674086 -80.0933057893375 0.75543137674086 -80.0933057893375 0.181515306551248 11.3308764314678 
! Gamma         111.6649129536   3828.34411161346 113.873352161848 3832.11346289256 
! Port Impedance         50               0                50               0                
80                             0.181786458536251 7.6629112889572  0.752645651275493 -85.570459590206 0.752645651275492 -85.570459590206 0.18344522608134 7.26886219804294 
! Gamma         112.970726367013 3877.10640936463 115.196144770923 3880.91178160801 
! Port Impedance         50               0                50               0                
81                             0.182139601961609 3.43002476476366 0.750087107761634 -91.0433195939905 0.750087107761634 -91.0433195939905 0.183823804128123 3.20734579639479 
! Gamma         114.277342365106 3925.88610120141 116.519652567332 3929.72754917262 
! Port Impedance         50               0                50               0                
82                             0.180939846142967 -0.782741381549859 0.747760674872001 -96.5151328368365 0.747760674872001 -96.5151328368365 0.182664961870281 -0.833050848858088 
! Gamma         115.58481360471  3974.68350745199 117.843930044129 3978.56108944108 
! Port Impedance         50               0                50               0                
83                             0.178213492903868 -4.95729149649127 0.745663545554127 -101.989170187719 0.745663545554127 -101.989170187719 0.17999549102041 -4.83132405862786 
! Gamma         116.893192721981 4023.49895361125 119.169031559942 4027.4127314423  
! Port Impedance         50               0                50               0                