! Touchstone file exported from HFSS 2024.2.0
!        File:           C:/Users/vaintrug/Documents/Ansoft_Workspace/Comparaison_Calculs_HFSS/1_VarPort.aedt
!        Generated:      03:22:18 PM Jan 21, 2025
!        Design:         1_NoDeembed_FacePortFree
!        Project:        1_VarPort
!        Setup:          Setup1
!        Solution:       Sweep
!
! Variables:
!        $Lenght = 2000um
!        $PortSize = 110um
!        Gap = 30um
!        Th = 2um
!        X_centralStrip = 20um
!        X_masse = 200um
!        Y_Sub = 2mm
!        Z_Box = 400um
!        Z_Sub = 200um
!
# GHz S MA R 50.000000
! Terminal data exported
! Port[1] = 1
! Port[2] = 2
1                              0.0270302833418402 60.6151200484426 0.985389974086876 -5.89632759823182 0.985389974086877 -5.89632759823182 0.0270319374951854 60.6010606701577 
! Gamma         5.85129128685858 50.2419978622474 5.80363169740167 50.0512167229685 
! Port Impedance         50               0                50               0                
2                              0.0479233216826583 66.4259913673538 0.981873361559192 -11.6559548710061 0.981873361559192 -11.6559548710061 0.047919636776134 66.3997586918285 
! Gamma         7.75419198773549 99.0683820780067 7.61707187888099 98.7474769247644 
! Port Impedance         50               0                50               0                
3                              0.0690877854180744 65.5161852056044 0.978339402195294 -17.4172897616714 0.978339402195295 -17.4172897616714 0.0690758903748599 65.482506999915  
! Gamma         9.25409413652957 147.853320701051 9.06353515997721 147.447855933215 
! Port Impedance         50               0                50               0                
4                              0.0897648466151853 62.359195737098  0.974418344562297 -23.1704933541541 0.974418344562298 -23.1704933541542 0.0897438629695492 62.3186396514242 
! Gamma         10.6325417701467 196.697214588784 10.4112009435174 196.209029237432 
! Port Impedance         50               0                50               0                
5                              0.109520148389504 58.2254798399314 0.970087511926307 -28.9065935380924 0.970087511926307 -28.9065935380924 0.109489506353105 58.177901438997  
! Gamma         11.9851100465651 245.576745906785 11.7420289243121 245.002455515651 
! Port Impedance         50               0                50               0                
6                              0.128061704507088 53.6028353636514 0.965406330230041 -34.6194570398284 0.965406330230041 -34.6194570398285 0.128020870885505 53.5480305153549 
! Gamma         13.3434671351296 294.469558913398 13.0821564895724 293.806443313503 
! Port Impedance         50               0                50               0                
7                              0.145170452594725 48.7163809944456 0.960463051121009 -40.3049820811773 0.960463051121009 -40.3049820811773 0.145118917700515 48.6541953360718 
! Gamma         14.718523716312  343.361224919839 14.440202111319  342.607628863237 
! Port Impedance         50               0                50               0                
8                              0.160675922841472 43.683859480798  0.955357282568138 -45.9607319437928 0.955357282568138 -45.9607319437928 0.160613234063414 43.6141973560684 
! Gamma         16.1134571374202 392.242572113815 15.8183318402132 391.397654455282 
! Port Impedance         50               0                50               0                
9                              0.174445806523504 38.5724198438808 0.950191012853197 -51.5857474795031 0.950191012853197 -51.5857474795031 0.174371606332864 38.4952368770797 
! Gamma         17.5281704848099 441.107651708977 17.2159915137097 440.171139893581 
! Port Impedance         50               0                50               0                
10                             0.186379954352196 33.4226709509935 0.945062639073853 -57.1804004979298 0.945062639073855 -57.1804004979299 0.186294014791263 33.3379670851423 
! Gamma         18.9610608174426 489.952587006156 18.6313824091766 488.92460155917  
! Port Impedance         50               0                50               0                
11                             0.196405863574194 28.2601129006576 0.940062629787779 -62.746242335142 0.940062629787779 -62.746242335142 0.19630811644917 28.1679287228424 
! Gamma         20.4098231766505 538.774922421304 20.0621357549982 537.655856517625 
! Port Impedance         50               0                50               0                
12                             0.204474769033256 23.1011208495216 0.935270389392288 -68.2858373008942 0.935270389392289 -68.2858373008942 0.204365332440512 23.0015374147367 
! Gamma         21.8718618494001 587.573231575942 21.5056616878277 586.363667377943 
! Port Impedance         50               0                50               0                
13                             0.210558143717631 17.9563643626344 0.930752114872836 -73.8025832996204 0.930752114872835 -73.8025832996205 0.210437345670489 17.8495062697718 
! Gamma         23.3445209209449 636.346861364292 22.9593474508835 635.047510239364 
! Port Impedance         50               0                50               0                
14                             0.214644638479398 12.8329363914055 0.926559482762323 -79.3005255827543 0.926559482762323 -79.3005255827543 0.214513038373725 12.7189782657326 
! Gamma         24.8252212597339 685.095750902272 24.4206764347145 683.707409553654 
! Port Impedance         50               0                50               0                
15                             0.216737541794269 7.73580357465017 0.922729015265857 -84.78416970921  0.922729015265857 -84.78416970921  0.216595950395807 7.61498035358004 
! Gamma         26.3115434693259 733.820294441579 25.887300625121  732.343812007859 
! Port Impedance         50               0                50               0                
16                             0.216852827939317 2.66889720156362 0.919281986744856 -90.2582985781974 0.919281986744856 -90.2582985781974 0.216702326599543 2.54151909924289 
! Gamma         27.8012765721166 782.521232829558 27.3570829656025 780.957485796751 
! Port Impedance         50               0                50               0                
17                             0.215017829252527 -2.36396927846413 0.916224752402572 -95.7277969331642 0.916224752402573 -95.7277969331642 0.214859789161124 -2.4974956636339 
! Gamma         29.2924437162964 831.199564969094 28.8281191093747 829.549437912996 
! Port Impedance         50               0                50               0                
18                             0.211270532937103 -7.35822827792009 0.913549408159703 -101.197485533331 0.913549408159702 -101.197485533331 0.211106635446274 -7.49737045049238 
! Gamma         30.7833117909785 879.856474841067 30.2987445904172 878.120845635012 
! Port Impedance         50               0                50               0                
19                             0.205659473294013 -12.3076191793869 0.911234719881163 -106.671966380369 0.911234719881164 -106.671966380369 0.205491732784792 -12.4516772896237 
! Gamma         32.2723897136115 928.493271249925 31.7675316431162 926.672999813098 
! Port Impedance         50               0                50               0                
20                             0.198244168423368 -17.2030527219577 0.909247287366116 -112.155480103283 0.909247287366116 -112.155480103283 0.198074959952036 -17.3511007060525 
! Gamma         33.7584188540556 977.111338469464 33.2332788382423 975.207258288122 
! Port Impedance         50               0                50               0                
21                             0.189096039889671 -22.0310928279272 0.907542930341575 -117.651776677298 0.907542930341576 -117.651776677298 0.188928135281474 -22.1818933649416 
! Gamma         35.2403582822151 1025.71209621576 34.6949959555449 1023.72500818791 
! Port Impedance         50               0                50               0                
22                             0.1782997594026  -26.7717507990307 0.906068297941446 -123.164001093567 0.906068297941447 -123.164001093567 0.178136378027722 -26.9236296998733 
! Gamma         36.7173667486154 1074.29696788793 36.151885932888  1072.22763597505 
! Port Impedance         50               0                50               0                
23                             0.165955002657453 -31.3950453623764 0.904762708139955 -128.694596152594 0.904762708139954 -128.694596152594 0.165799887909142 -31.5457010998714 
! Gamma         38.1887830115689 1122.86735578641 37.6033253752661 1120.71650420838 
! Port Impedance         50               0                50               0                
24                             0.152178688575536 -35.8552810526218 0.903560218878118 -134.245225174456 0.903560218878118 -134.245225174456 0.15203623031235 -36.0014868343547 
! Gamma         39.6541056028631 1171.42462239927 39.0488446445753 1169.19293403856 
! Port Impedance         50               0                50               0                
25                             0.137108022139456 -40.080901438133 0.902391918273563 -139.816717858353 0.902391918273563 -139.816717858353 0.13698346409522 -40.218022255178 
! Gamma         41.1129729134944 1219.97007675613 40.4881083532719 1217.65819251961 
! Port Impedance         50               0                50               0                
26                             0.120905247711914 -43.9552029860572 0.901188398875466 -145.409042679339 0.901188398875466 -145.409042679339 0.120805059175844 -44.0763814031429 
! Gamma         42.5651441273833 1268.50496501298 41.9208967795753 1266.11348399065 
! Port Impedance         50               0                50               0                
27                             0.103766563064306 -47.2766256186117 0.899882352937431 -151.021308946805 0.899882352937431 -151.021308946805 0.103699147511743 -47.3713544463898 
! Gamma         44.0104814347826 1317.03046447571 43.3470885779447 1314.55994467148 
! Port Impedance         50               0                50               0                
28                             0.0859421410878169 -49.6687175942738 0.898411196006267 -156.65180084162 0.898411196006267 -156.65180084162 0.0859192883499873 -49.7202802905907 
! Gamma         45.4489337361888 1365.54768037002 44.7666449718105 1362.99863992604 
! Port Impedance         50               0                50               0                
29                             0.0677893136465289 -50.3503815522199 0.896719599593009 -162.298044433858 0.896719599593009 -162.298044433858 0.0678294292058558 -50.3315675785067 
! Gamma         46.8805219177528 1414.05764483671 46.1795955437938 1411.43056355205 
! Port Impedance         50               0                50               0                
30                             0.0499414894350419 -47.4638381414086 0.894761795504307 -167.956906893   0.894761795504307 -167.956906893   0.0500772199863735 -47.3344625082493 
! Gamma         48.3053257768077 1462.56131754765 47.5860256049128 1459.8566386663  
! Port Impedance         50               0                50               0                
31                             0.0339605866668209 -35.9553690719045 0.892503509170562 -173.624724999562 0.892503509170562 -173.624724999562 0.0342528566344931 -35.7191346242919 
! Gamma         49.7234725007079 1511.05958760611 48.9860651232641 1508.27771975242 
! Port Impedance         50               0                50               0                
32                             0.0247559646952488 -5.30092945705355 0.889923390126315 -179.297457886881 0.889923390126315 -179.297457886881 0.0252361794287002 -5.47583655501727 
! Gamma         51.1351266624689 1559.55327635229 50.3798791174326 1556.69459554552 
! Port Impedance         50               0                50               0                
33                             0.0296625372530588 31.417053754494  0.887013835287609 175.029143017329 0.887013835287609 175.029143017329 0.0300862685891442 30.4429052440296 
! Gamma         52.5404815780786 1608.04314076599 51.7676593948614 1605.10799247192 
! Port Impedance         50               0                50               0                
34                             0.0439146245616256 47.95870158409   0.883781142514856 169.35935539988  0.883781142514856 169.35935539988  0.0441810321780747 46.909879809667  
! Gamma         53.9397519599096 1656.5298772924  53.1496175202062 1653.51857849182 
! Port Impedance         50               0                50               0                
35                             0.0608406298336449 52.8757026418561 0.880244983185001 163.697308137433 0.880244983185002 163.697308137433 0.0609896289515883 51.8995322875755 
! Gamma         55.333167686648  1705.01412588378 54.5259788916792 1701.92696705807 
! Port Impedance         50               0                50               0                
36                             0.0781916211371024 53.1341922898057 0.876437236167401 158.04681334129  0.8764372361674  158.04681334129  0.0782501741061867 52.2135061498752 
! Gamma         56.7209685966419 1753.49647407349 55.8969777903911 1750.33372118715 
! Port Impedance         50               0                50               0                
37                             0.0951677859150395 51.2775383041537 0.872400274315547 152.411216802738 0.872400274315547 152.411216802738 0.0951488550554785 50.3880039247346 
! Gamma         58.1034001605929 1801.97746110764 57.2628532891918 1798.73935745572 
! Port Impedance         50               0                50               0                
38                             0.11137342671432 48.3246583966768 0.868184831859231 146.793273710045 0.868184831859232 146.793273710046 0.111283085201557 47.4485101758959 
! Gamma         59.4807099451153 1850.4575819022  58.623845904938  1847.1443499003  
! Port Impedance         50               0                50               0                
39                             0.12655880194195 44.7475657042965 0.863847602653179 141.195054454264 0.863847602653179 141.195054454264 0.126399721366638 43.8721977507933 
! Gamma         60.8531447274922 1898.93729087917 59.9801948942331 1895.54913374446 
! Port Impedance         50               0                50               0                
40                             0.140543597458724 40.7920693297586 0.859448723738883 135.617883094395 0.859448723738883 135.617883094395 0.140316668646822 39.9081086781966 
! Gamma         62.220948201441  1947.41700560556 61.3321360998009 1943.95410893378 
! Port Impedance         50               0                50               0                
41                             0.153189395840751 36.5981586476288 0.855049287612397 130.062308851592 0.855049287612397 130.062308851592 0.152894525520458 35.6981889414345 
! Gamma         63.5843591655506 1995.89711021588 62.6799002647169 1992.35964344982 
! Port Impedance         50               0                50               0                
42                             0.164387866752737 32.2512591608335 0.850709003645891 124.528109118255 0.850709003645892 124.528109118255 0.164024391021879 31.3290280188642 
! Gamma         64.9436101253244 2044.37795859855 64.0237117402911 2040.76607640138 
! Port Impedance         50               0                50               0                
43                             0.174054708124359 27.8064408091068 0.846484099188377 119.01432100627  0.846484099188378 119.01432100627  0.173621613244324 26.856354269121  
! Gamma         66.2989262463777 2092.85987736892 65.3637875259872 2089.17372088036 
! Port Impedance         50               0                50               0                
44                             0.182125925588606 23.300879909614  0.842425518979537 113.519297524334 0.842425518979536 113.519297524334 0.181621963641109 22.3176606768034 
! Gamma         67.6505245982212 2141.34316857483 66.7003365823998 2137.58286659223 
! Port Impedance         50               0                50               0                
45                             0.188555184893652 18.760774054195  0.838577451912517 108.040784009573 0.838577451912517 108.040784009573 0.187978926710943 17.7392117222684 
! Gamma         68.9986136377254 2189.82811223012 68.0335593768878 2185.9937822599  
! Port Impedance         50               0                50               0                
46                             0.19331175878229 14.2054596360086 0.834976189898445 102.576010399329 0.834976189898445 102.576010399329 0.192661605144795 13.1402100431478 
! Gamma         70.3433928899687 2238.31496857989 69.3636476068251 2234.40671783943 
! Port Impedance         50               0                50               0                
47                             0.196378899100039 9.65005021515554 0.83164930622256 97.1217951866197 0.831649306222561 97.1217951866197 0.195653059948754 8.53545660216378 
! Gamma         71.6850527940283 2286.80398020035 70.6907840868278 2282.82190649598 
! Port Impedance         50               0                50               0                
48                             0.197752588489254 5.10727522715976 0.828615130653083 91.6746573268953 0.828615130653084 91.6746573268953 0.196949033105073 3.93719171070701 
! Gamma         73.0237746747049 2335.29537387493 72.0151427459534 2331.23956643653 
! Port Impedance         50               0                50               0                
49                             0.197440672110354 0.588898518987194 0.825882494992298 86.2309328575379 0.825882494992298 86.2309328575379 0.196557048213454 -0.643500254470791 
! Gamma         74.3597308237816 2383.78936231928 73.3368887273316 2379.65990253085 
! Port Impedance         50               0                50               0                
50                             0.195462382822076 -3.89304657771027 0.823450724408883 80.7868934329494 0.823450724408883 80.7868934329494 0.194495897846396 -5.19548542449201 
! Gamma         75.6930846583065 2432.28614572263 74.6561785660715 2428.0831078021  
! Port Impedance         50               0                50               0                
51                             0.191848273517395 -8.32503051423294 0.821309855030748 75.3388643248724 0.821309855030749 75.3388643248723 0.190795525839566 -9.70640125335507 
! Gamma         77.0239909433422 2480.78591313155 75.9731604201573 2476.50936475251 
! Port Impedance         50               0                50               0                
52                             0.186640568612742 -12.6906451025122 0.819441065130663 69.8833396184532 0.819441065130663 69.8833396184532 0.185497309093747 -14.1613440317994 
! Gamma         78.3525960643929 2529.28884371821 77.2879743461507 2524.93884654862 
! Port Impedance         50               0                50               0                
53                             0.17989395146371 -16.9688694325316 0.817817313959329 64.4170923687811 0.817817313959329 64.4170923687811 0.178654744647991 -18.5412343237587 
! Gamma         79.6790383353287 2577.79510789352 78.6007526099552 2573.37171810144 
! Port Impedance         50               0                50               0                
54                             0.171676825326479 -21.1317032489281 0.816404187294347 58.9372773636871 0.816404187294346 58.9372773636872 0.170334562419181 -22.8205896629797 
! Gamma         81.0034483266465 2626.30486831271 79.9116200149347 2621.80813701985 
! Port Impedance         50               0                50               0                
55                             0.162073139095096 -25.1407173311927 0.815160950657913 53.4415239219395 0.815160950657914 53.4415239219395 0.16061832677404 -26.9642668696074 
! Gamma         82.325949213268  2674.81828078817 81.2206942462825 2670.24825446808 
! Port Impedance         50               0                50               0                
56                             0.151184987737323 -28.9417463712431 0.814041808874754 47.928015901473  0.814041808874754 47.928015901473  0.149604689842193 -30.9224107470092 
! Gamma         83.6466571317136 2723.33549506632 82.5280862188057 2718.6922159257  
! Port Impedance         50               0                50               0                
57                             0.139136449317696 -32.4563234298078 0.812997363638546 42.3955558794487 0.812997363638546 42.3955558794486 0.137412677879737 -34.6222008276139 
! Gamma         84.9656815357924 2771.85665558169 83.833900431751  2767.14016187229 
! Port Impedance         50               0                50               0                
58                             0.126079658484995 -35.5672098001404 0.811976249008292 36.8436103914041 0.811976249008292 36.8436103914041 0.124186871260816 -37.9536623669387 
! Gamma         86.283125555457  2820.38190206862 85.1382353153949 2815.59222838852 
! Port Impedance         50               0                50               0                
59                             0.11220529988979 -38.0928252319887 0.810926909064502 31.2723332727781 0.810926909064502 31.2723332727781 0.110106426741497 -40.7439629982604 
! Gamma         87.5990863500828 2868.91137013271 86.4411835769141 2864.04854769107 
! Port Impedance         50               0                50               0                
60                             0.0977624263255642 -39.7400887231226 0.809799463856517 25.6825645840417 0.809799463856517 25.6825645840417 0.0954025014669987 -42.7082573129384 
! Gamma         88.9136554490176 2917.44519176841 87.7428325307469 2912.509248621   
! Port Impedance         50               0                50               0                
61                             0.0830990384044172 -40.0146218187043 0.808547591565335 20.0758034204667 0.808547591565335 20.0758034204667 0.08039532212608 -43.3506878684843 
! Gamma         90.2269190877699 2965.98349579274 89.0432644276209 2960.97445705385 
! Port Impedance         50               0                50               0                
62                             0.0687506952681616 -38.0515018128711 0.807130339401784 14.4541540354895 0.807130339401784 14.4541540354895 0.0655801865064962 -41.7590261624981 
! Gamma         91.5389585348699 3014.52640824693 90.3425567640985 3009.44429627748 
! Port Impedance         50               0                50               0                
63                             0.0556376524656928 -32.3502017045734 0.805513766128572 8.82024615584242 0.805513766128572 8.82024615584242 0.0518389300196447 -36.2102889120764 
! Gamma         92.8498503938032 3063.07405274899 91.6407825844526 3057.91888732174 
! Port Impedance         50               0                50               0                
64                             0.0454405534563296 -20.773377165141 0.803672317905105 3.1771319761725  0.803672317905106 3.1771319761725  0.0409233080390654 -23.8456515560542 
! Gamma         94.1596669066148 3111.62655079248 92.9380107646218 3106.39834925362 
! Port Impedance         50               0                50               0                
65                             0.0407815430257229 -2.7413912244336 0.801589848049493 -2.47183605427915 0.801589848049491 -2.47183605427915 0.0359256429899726 -3.17673810044808 
! Gamma         95.4684762312632 3160.18402204002 94.2343062884358 3154.88279942836 
! Port Impedance         50               0                50               0                
66                             0.0435157091250372 16.241937297738  0.799260210475297 -8.12314108645934 0.799260210475297 -8.12314108645934 0.0392073110775434 18.540358289738  
! Gamma         96.7763427164679 3208.74658453625 95.529730502561  3203.37235371886 
! Port Impedance         50               0                50               0                
67                             0.0522887890878419 29.439940593953  0.796687384493873 -13.7732447193659 0.796687384493873 -13.7732447193659 0.0488995263591725 32.4930069897187 
! Gamma         98.0833271498041 3257.31435494961 96.8243413633731 3251.8671267082  
! Port Impedance         50               0                50               0                
68                             0.0643303835752166 36.341628440846  0.793885122265642 -19.4187296160573 0.793885122265642 -19.4187296160573 0.0616866214603555 39.0806631995679 
! Gamma         99.3894870044518 3305.88744872471 98.1181936695989 3300.36723187049 
! Port Impedance         50               0                50               0                
69                             0.0777088131026849 39.0668208437322 0.79087614528559 -25.0564346816772 0.790876145285589 -25.0564346816772 0.0755690834101095 41.2789932089949 
! Gamma         100.69487666132  3354.46598026916 99.4113392771726 3348.87278171395 
! Port Impedance         50               0                50               0                
70                             0.0913730867854169 39.2948851356737 0.787690948423325 -30.6835762105883 0.787690948423327 -30.6835762105883 0.0895588878207755 41.0153676840806 
! Gamma         101.999547624454 3403.0500630872  100.703827306975 3397.38388792017 
! Port Impedance         50               0                50               0                
71                             0.104737098601934 38.0125560682228 0.784366295278803 -36.2978495260117 0.784366295278803 -36.2978495260117 0.103126918543328 39.315592371365  
! Gamma         103.303548724005 3451.63980989767 101.995704335611 3445.90066145509 
! Port Impedance         50               0                50               0                
72                             0.117440576066247 35.7819592595858 0.78094350429789 -41.8975071199137 0.780943504297891 -41.8975071199137 0.115949951140481 36.7329176873729 
! Gamma         104.606926300976 3500.23533274992 103.287014575982 3494.42321267246 
! Port Impedance         50               0                50               0                
73                             0.129240738306391 32.9338774663301 0.77746663018831 -47.4814109531914 0.77746663018831 -47.4814109531914 0.127808136572892 33.5823768089382 
! Gamma         105.909724385269 3548.83674310847 104.577800046177 3542.95165139089 
! Port Impedance         50               0                50               0                
74                             0.139963130853362 29.6721017836266 0.7739806403469  -53.0490582195221 0.773980640346899 -53.049058219522 0.138541308907693 30.0539192632981 
! Gamma         107.211984861212 3597.44415194143 105.868100727805 3591.48608698161 
! Port Impedance         50               0                50               0                
75                             0.14947790292703 26.1280787114719 0.77052967324657 -58.6005813489435 0.77052967324657 -58.6005813489435 0.148028652036823 26.2681490581166 
! Gamma         108.513747620909 3646.05766978162 107.157954712205 3640.02662841998 
! Port Impedance         50               0                50               0                
76                             0.157687402503253 22.390316749593  0.767155447856089 -64.1367242047806 0.767155447856087 -64.1367242047806 0.15617825317285 22.3052068212203 
! Gamma         109.815050707576 3694.67740679309 108.447398338379 3688.57338434827 
! Port Impedance         50               0                50               0                
77                             0.164519094643412 18.520906111885  0.763895873191244 -69.6587972728824 0.763895873191244 -69.6587972728824 0.162921147593663 18.2205878925466 
! Gamma         111.115930451488 3743.30347281345 109.736466320735 3737.12646311935 
! Port Impedance         50               0                50               0                
78                             0.16992115804269 14.5652537435337 0.760783887727852 -75.1686151329691 0.760783887727851 -75.1686151329691 0.168207567061161 14.0542937673106 
! Gamma         112.41642159234  3791.93597740331 111.025191868164 3785.68597283335 
! Port Impedance         50               0                50               0                
79                             0.173859550526384 10.5581222010039 0.757846541709968 -80.6684196947387 0.757846541709968 -80.6684196947387 0.17200437941492 9.83642697202314 
! Gamma         113.716557397021 3840.57502988346 112.31360679453  3834.25202137735 
! Port Impedance         50               0                50               0                
80                             0.176315978420892 6.52759872588361 0.755104322572613 -86.1607926391063 0.755104322572612 -86.1607926391063 0.174293260623111 5.59082159922295 
! Gamma         115.01636976684  3889.22073935867 113.601741621633 3882.8247164456  
! Port Impedance         50               0                50               0                
81                             0.177286504901256 2.49789318095157 0.752570715217444 -91.6485603086355 0.752570715217443 -91.6485603086355 0.175069390767783 1.33757102281202 
! Gamma         116.315889338608 3937.87321474545 114.889625674373 3931.40416556464 
! Port Impedance         50               0                50               0                
82                             0.176780676426179 -1.5085068449744 0.750251984475013 -97.1346940297021 0.750251984475013 -97.1346940297021 0.174340580651454 -2.90504897266406 
! Gamma         117.615145576795 3986.53256479822 116.177287169515 3979.99047611933 
! Port Impedance         50               0                50               0                
83                             0.174821117919768 -5.46898359314446 0.748147166023415 -102.622208581276 0.748147166023415 -102.622208581276 0.172126788924685 -7.11894437224767 
! Gamma         118.91416685877  4035.19889811881 117.464753297467 4028.58375535541 
! Port Impedance         50               0                50               0                