! Touchstone file exported from HFSS 2024.2.0
!        File:           C:/Users/vaintrug/Documents/Ansoft_Workspace/Comparaison_Calculs_HFSS/1_VarPort.aedt
!        Generated:      03:22:18 PM Jan 21, 2025
!        Design:         1_NoDeembed_FacePortFree
!        Project:        1_VarPort
!        Setup:          Setup1
!        Solution:       Sweep
!
! Variables:
!        $Lenght = 1500um
!        $PortSize = 400um
!        Gap = 30um
!        Th = 2um
!        X_centralStrip = 20um
!        X_masse = 200um
!        Y_Sub = 1.5mm
!        Z_Box = 400um
!        Z_Sub = 200um
!
# GHz S MA R 50.000000
! Terminal data exported
! Port[1] = 1
! Port[2] = 2
1                              0.0215309962081434 63.4727065070113 0.989113143467544 -4.4339577048136 0.989113143467544 -4.43395770481361 0.0215289534281298 63.4772338077545 
! Gamma         5.84134609353007 49.6988602715842 5.69027367931236 49.3467979157817 
! Port Impedance         50               0                50               0                
2                              0.0387251681960475 70.0671647526401 0.98656635194695 -8.76776446114019 0.986566351946952 -8.76776446114018 0.0387183555303404 70.0857599897995 
! Gamma         7.49437855479343 98.1940119114194 7.27326918425465 97.5699834463632 
! Port Impedance         50               0                50               0                
3                              0.0562493084683581 70.2236724637443 0.984029038420182 -13.1051632842814 0.984029038420181 -13.1051632842814 0.0562383843849509 70.2567780638034 
! Gamma         8.85222162428717 146.753070384702 8.59787718104089 145.871939106541 
! Port Impedance         50               0                50               0                
4                              0.0736107170155307 68.2643390346786 0.981209674694304 -17.439923697905 0.981209674694305 -17.439923697905 0.0735964526339539 68.3114994551113 
! Gamma         10.1478460874707 195.374855925189 9.87342137754193 194.230251821582 
! Port Impedance         50               0                50               0                
5                              0.0905457042429316 65.3836429654824 0.978069536911831 -21.7662160395593 0.97806953691183 -21.7662160395592 0.0905287208003893 65.4446567191978 
! Gamma         11.4419895629906 244.023908935105 11.1507824624846 242.610983715289 
! Port Impedance         50               0                50               0                
6                              0.106883582043138 62.0349374930617 0.974627071414704 -26.0799404128931 0.974627071414704 -26.0799404128931 0.106864382751905 62.1098214944604 
! Gamma         12.7518763815605 292.679601548049 12.4442096242443 290.995783578752 
! Port Impedance         50               0                50               0                
7                              0.122496000779229 58.4261355678122 0.970920617030182 -30.3780647704349 0.970920617030183 -30.3780647704349 0.12247501016789 58.5150577169692 
! Gamma         14.0822353913179 341.33030322529  13.7575433381889 339.37442202254  
! Port Impedance         50               0                50               0                
8                              0.137279590771654 54.6657387193773 0.96699771461423 -34.6583367734902 0.966997714614231 -34.6583367734902 0.137257185791564 54.7689786929533 
! Gamma         15.433411112533  389.969067851669 15.0908974202594 387.74075486858  
! Port Impedance         50               0                50               0                
9                              0.151149153129895 50.8158300327587 0.962910464906912 -38.9191637066233 0.962910464906911 -38.9191637066233 0.151125688217255 50.9337585884168 
! Gamma         16.8039588325049 438.591582455781 16.4428160886471 436.09093644952  
! Port Impedance         50               0                50               0                
10                             0.16403442417347 46.914369077056  0.958712733594864 -43.1595501475469 0.958712733594863 -43.1595501475469 0.164010252119409 47.0474377043977 
! Gamma         18.1916491007507 487.1951761706   17.8111350299737 484.422577853489 
! Port Impedance         50               0                50               0                
11                             0.175878118703463 42.9856787101535 0.954458131620241 -47.3790520914498 0.95445813162024 -47.3790520914498 0.175853608190262 43.1344152685976 
! Gamma         19.5939283673374 535.778299842347 19.1933918500503 532.734304497139 
! Port Impedance         50               0                50               0                
12                             0.186634441045114 39.0458343142593 0.950198451831682 -51.5777328476204 0.950198451831681 -51.5777328476203 0.186609991219748 39.2108424862734 
! Gamma         21.0081617560584 584.34022163135  20.5870501444316 581.025492946277 
! Port Impedance         50               0                50               0                
13                             0.196267775144516 35.1056449083156 0.945982449845635 -55.7561162382338 0.945982449845636 -55.7561162382338 0.196243827463872 35.2876064394024 
! Gamma         22.4317742524092 632.88082811397  21.9896328108924 629.296094886682 
! Port Impedance         50               0                50               0                
14                             0.204751463125618 31.1724109856041 0.941854915287822 -59.9151366079856 0.941854915287823 -59.9151366079856 0.204728510711891 31.37209021759   
! Gamma         23.8623363322398 681.400481187867 23.3988041987806 677.546507238732 
! Port Impedance         50               0                50               0                
15                             0.212066657963222 27.2510224032389 0.937855994316977 -64.0560866197211 0.937855994316977 -64.0560866197211 0.212045252774552 27.4692729471438 
! Gamma         25.2976157597187 729.899907429057 24.8124200303256 725.777469729983 
! Port Impedance         50               0                50               0                
16                             0.2182012632787  23.3446816950618 0.934020726891125 -68.1805641531586 0.934020726891124 -68.1805641531586 0.218182021485256 23.5824553315284 
! Gamma         26.7356063584728 778.380108534741 26.2285550449814 773.989980988513 
! Port Impedance         50               0                50               0                
17                             0.223148979410355 19.4554055480865 0.930378762904376 -72.2904195275703 0.930378762904377 -72.2904195275703 0.223132585416837 19.7137635133147 
! Gamma         28.1745404934768 826.842287425346 27.6455149375976 822.185228602483 
! Port Impedance         50               0                50               0                
18                             0.226908472754613 15.5843902748626 0.926954222953821 -76.3877039873501 0.926954222953822 -76.3877039873501 0.226895682388008 15.8645173419986 
! Gamma         29.6128898518646 875.287786794715 29.0618368355024 870.364530803696 
! Port Impedance         50               0                50               0                
19                             0.229482680045414 11.7322920801377 0.923765672724901 -80.4746200779643 0.923765672724901 -80.4746200779643 0.22947432346059 12.0355139147053 
! Gamma         31.0493578790173 923.718038324739 30.4762817237445 918.52928807877  
! Port Impedance         50               0                50               0                
20                             0.2308782536683  7.89945376163426 0.920826184361358 -84.5534742590271 0.920826184361357 -84.5534742590271 0.230875238589554 8.22725827339305 
! Gamma         32.4828664867869 972.134521220603 31.887821304369  966.680943675948 
! Port Impedance         50               0                50               0                
21                             0.23110514902422 4.08609897017394 0.918143463264574 -88.626631888769 0.918143463264574 -88.626631888769 0.231108465011287 4.44016261309284 
! Gamma         33.9125390910681 1020.5387288673  33.2956213466937 1014.82095190076 
! Port Impedance         50               0                50               0                
22                             0.230176350872395 0.292509409884044 0.915720024008091 -92.6964745635686 0.91572002400809 -92.6964745635685 0.230187075409345 0.674729718423344 
! Gamma         35.3376815876249 1068.9321426666  34.6990231327265 1062.95075326727 
! Port Impedance         50               0                50               0                
23                             0.22810773250022 -3.4808024235711 0.913553404066451 -96.7653597170969 0.913553404066451 -96.7653597170969 0.228127039865331 -3.06826634452311 
! Gamma         36.7577624811056 1117.31621198008 36.0975240839371 1111.07175551022 
! Port Impedance         50               0                50               0                
24                             0.224918039246183 -7.23291313226397 0.911636408609745 -100.835582356346 0.911636408609745 -100.835582356346 0.2249472133801  -6.78758977544615 
! Gamma         38.1723930963914 1165.69233934123 37.490758533488  1159.1853197148  
! Port Impedance         50               0                50               0                
25                             0.220628986186825 -10.9622880112783 0.909957383537327 -104.909338838366 0.909957383537327 -104.909338838366 0.220669439145803 -10.4813290673064 
! Gamma         39.5813084820587 1214.06187008398 38.8784792587975 1207.29275055983 
! Port Impedance         50               0                50               0                
26                             0.215265458713914 -14.6665444774283 0.908500517082792 -108.988692645927 0.908500517082792 -108.988692645927 0.21531875687548 -14.1466423142685 
! Gamma         40.9843495021301 1262.42608550641 40.2605401455907 1255.39529007573 
! Port Impedance         50               0                50               0                
27                             0.208855804129869 -18.3421578042119 0.907246172704671 -113.075542209149 0.907246172704671 -113.075542209149 0.208923705177611 -17.7794384319633 
! Gamma         42.3814463307877 1310.78619903988 41.6368802807709 1303.49411415307 
! Port Impedance         50               0                50               0                
28                             0.201432202561458 -21.9840780653986 0.906171257514037 -117.171590921987 0.906171257514038 -117.171590921987 0.201516707606973 -21.3739603600903 
! Gamma         43.7726035285803 1359.14335465945 43.0075095891237 1351.59033124691 
! Port Impedance         50               0                50               0                
29                             0.19303110702172 -25.5852110494616 0.905249631151778 -121.278319617567 0.905249631151777 -121.278319617567 0.193134534286548 -24.9222187524412 
! Gamma         45.1578867197037 1407.49862712854 44.3724960260186 1399.68498278357 
! Port Impedance         50               0                50               0                
30                             0.183693746319787 -29.1356885749144 0.904452559798762 -125.396961877521 0.904452559798762 -125.396961877521 0.183818836078654 -28.413194952806 
! Gamma         46.5374108598875 1455.8530235568  45.7319543463189 1447.77904484237 
! Port Impedance         50               0                50               0                
31                             0.173466692773659 -32.6218062539345 0.903749218878706 -129.528482652834 0.903749218878705 -129.528482652834 0.17361675862107 -31.831680736255 
! Gamma         47.9113300243621 1504.20748596462 47.0860363025402 1495.87343072525 
! Port Impedance         50               0                50               0                
32                             0.162402513148694 -36.0244219893256 0.903107246021176 -133.673560761562 0.903107246021174 -133.673560761562 0.162581663639932 -35.1565309930056 
! Gamma         49.2798285892753 1552.56289453029 48.4349222443769 1543.968994209   
! Port Impedance         50               0                50               0                
33                             0.150560553811765 -39.3164512965257 0.902493343043003 -137.832575883449 0.902493343043002 -137.832575883449 0.150774024189419 -38.3579368938158 
! Gamma         50.6431137196263 1600.92007126331 49.7788139380254 1592.06653315271 
! Port Impedance         50               0                50               0                
34                             0.138007976147529 -42.4587907454887 0.901873922229228 -142.00560068745 0.901873922229228 -142.00560068745 0.138262638142431 -41.3930024525227 
! Gamma         52.0014090125461 1649.27978396764 51.1179285136502 1640.16679339252 
! Port Impedance         50               0                50               0                
35                             0.124821293274956 -45.3933794578963 0.901215788234615 -146.19239870423 0.901215788234615 -146.19239870423 0.125126464358402 -44.1982510952147 
! Gamma         53.3549491710792 1697.64275027617 52.4524934069003 1688.27047267316 
! Port Impedance         50               0                50               0                
36                             0.111088955020407 -48.0307648042292 0.900486842753298 -150.392428469757 0.900486842753298 -150.392428469757 0.111457734148513 -46.6762863395931 
! Gamma         54.7039755996153 1746.00964171883 53.7827421747258 1736.37822458629 
! Port Impedance         50               0                50               0                
37                             0.0969162250106116 -50.2264278058411 0.899656795065328 -154.604854335568 0.899656795065328 -154.604854335569 0.0973678021210659 -48.670637752683 
! Gamma         56.0487327771918 1794.38108768588 55.108911065487  1784.49066243773 
! Port Impedance         50               0                50               0                
38                             0.0824353879724332 -51.7323355810549 0.898697858044745 -158.828564148986 0.898697858044745 -158.828564148986 0.0829992565875501 -49.9150283953386 
! Gamma         57.3894653302867 1842.75767927309 56.4312362428326 1832.60836294637 
! Port Impedance         50               0                50               0                
39                             0.0678294667870761 -52.0889235731706 0.897585406601254 -163.062193770219 0.897585406601254 -163.062193770219 0.0685535553436348 -49.9228714149456 
! Gamma         58.7264156842934 1891.1399729119  57.7499515780418 1880.73186976698 
! Port Impedance         50               0                50               0                
40                             0.0533943225766823 -50.3597425974019 0.896298574217801 -167.304158125054 0.896298574217802 -167.304158125054 0.0543613227774198 -47.7267493948368 
! Gamma         60.0598222230493 1939.52849384146 59.0652869149617 1928.8616968267  
! Port Impedance         50               0                50               0                
41                             0.0397254745911968 -44.4249173300957 0.894820763485555 -171.552688201155 0.894820763485555 -171.552688201155 0.04108298449562 -41.2405133877515 
! Gamma         61.3899178642354 1987.92373931404 60.3774667308407 1976.99833142136 
! Port Impedance         50               0                50               0                
42                             0.0283418107990101 -29.3322932310731 0.893140048528672 -175.805873112787 0.893140048528672 -175.805873112787 0.030308457997217 -26.0844720489113 
! Gamma         62.7169289965304 2036.32618161617 61.6867091526116 2025.14223711717 
! Port Impedance         50               0                50               0                
43                             0.0231410552645572 0.837722649406446 0.891249450901249 179.938293903758 0.891249450901249 179.938293903758 0.0256273250365028 1.64451174922394 
! Gamma         64.0410747101359 2084.7362708371  62.9932252348109 2073.29385642661 
! Port Impedance         50               0                50               0                
44                             0.0277836209181422 31.5594438814151 0.889147075761689 175.681866908979 0.889147075761691 175.681866908979 0.0299912951008132 29.5450004770871 
! Gamma         65.36256627544   2133.15443743831 64.2972184789807 2121.45361326499 
! Port Impedance         50               0                50               0                
45                             0.0386999075746307 47.2325138962132 0.88683610149208 171.426897588011 0.886836101492079 171.426897588011 0.0403987568631917 44.912947325643  
! Gamma         66.6816068207432 2181.58109460746 65.5988845530077 2169.62191521855 
! Port Impedance         50               0                50               0                
46                             0.0518319582085102 53.4538697004198 0.884324622945245 167.17538604546  0.884324622945246 167.17538604546  0.053183078840554 51.5273353233595 
! Gamma         67.9983911769127 2230.01664041842 66.8984111448413 2217.79915563438 
! Port Impedance         50               0                50               0                
47                             0.0655882773830389 55.3386529351853 0.88162535556816 162.929233608462 0.88162535556816 162.929233608462 0.0667237627298663 53.8118675343008 
! Gamma         69.3131058551711 2278.46145980372 68.1959779639845 2265.98571548781 
! Port Impedance         50               0                50               0                
48                             0.0793565891232725 55.0874364167172 0.878755214187055 158.69019907049  0.878755214187055 158.69019907049  0.0803557932122408 53.8807105910027 
! Gamma         70.6259291310538 2326.9159263521  69.4917568249397 2314.18196514928 
! Port Impedance         50               0                50               0                
49                             0.0928417547013568 53.6684224940602 0.875734785705357 154.459859635095 0.875734785705356 154.459859635095 0.0937532607394163 52.713454566944  
! Gamma         71.9370312093654 2375.38040396868 70.7859118283868 2362.38826593949 
! Port Impedance         50               0                50               0                
50                             0.105868019806632 51.5547795313632 0.872587718963147 150.23957757754  0.872587718963147 150.23957757754  0.106723537655665 50.8022844489944 
! Gamma         73.2465744608064 2423.85524836146 72.0785995808089 2410.60497159389 
! Port Impedance         50               0                50               0                
51                             0.118313665495025 49.0011096556293 0.869340057303578 146.030473365981 0.869340057303579 146.030473365981 0.119135310951996 48.4164205602219 
! Gamma         74.5547137025263 2472.3408084151  73.3699694823023 2458.83242957486 
! Port Impedance         50               0                50               0                
52                             0.130086114941491 46.1555217743673 0.866019539934093 141.833405692541 0.866019539934093 141.833405692541 0.13089028122041 45.7141561073143 
! Gamma         75.8615965161678 2520.83742745224 74.6601640356518 2507.07098227579 
! Port Impedance         50               0                50               0                
53                             0.14111119410466 43.1097024471622 0.862654897081129 137.648958571004 0.862654897081128 137.648958571004 0.141910712368467 42.7942316529007 
! Gamma         77.1673635984574 2569.34544435975 75.9493191841061 2555.32096813021 
! Port Impedance         50               0                50               0                
54                             0.151327959028762 39.9233062662922 0.859275161501541 133.477435400445 0.85927516150154 133.477435400444 0.152133367397931 39.7212838392073 
! Gamma         78.4721491193796 2617.86519464771 77.2375646658186 2603.58272261957 
! Port Impedance         50               0                50               0                
55                             0.160685920657752 36.6367356001031 0.855909015471378 129.318859659673 0.855909015471377 129.318859659673 0.161506246286997 36.5393346279585 
! Gamma         79.7760810992545 2666.39701140922 78.5250243759959 2651.85657921279 
! Port Impedance         50               0                50               0                
56                             0.169143376779074 33.2782609994806 0.852584188345093 125.172981725869 0.852584188345093 125.172981725869 0.169986639913875 33.2793703647385 
! Gamma         81.0792817879278 2714.94122619822 79.8118167359118 2700.14287021584 
! Port Impedance         50               0                50               0                
57                             0.17666628590053 29.8682025723358 0.849326915556726 121.039291178918 0.849326915556725 121.039291178919 0.177539839056285 29.9638211317659 
! Gamma         82.3818680436652 2763.49816986529 81.0980550621445 2748.44192757111 
! Port Impedance         50               0                50               0                
58                             0.183227423570144 26.4215014159757 0.846161465850383 116.917033879679 0.846161465850384 116.917033879679 0.184138189999395 26.6093297788263 
! Gamma         83.6839517115906 2812.06817329448 82.3838479282573 2796.75408360612 
! Port Impedance         50               0                50               0                
59                             0.188805699638336 22.9493686578902 0.843109739892001 112.80523307919  0.843109739892001 112.80523307919  0.189760349115103 23.2285358281983 
! Gamma         84.9856399954464 2860.65156812823 83.6692995329274 2845.07967170785 
! Port Impedance         50               0                50               0                
60                             0.193385580635875 19.460385853149  0.840190940357368 108.702713825143 0.840190940357367 108.702713825143 0.194390666140058 19.8312712684815 
! Gamma         86.2870358221191 2909.24868741889 84.9545100435637 2893.41902699152 
! Port Impedance         50               0                50               0                
61                             0.196956593332976 15.9612689966501 0.837421311287515 104.608129968671 0.837421311287516 104.608129968671 0.198018663985731 16.4253951107399 
! Gamma         87.5882381990544 2957.85986625769 86.2395759513077 2941.77248689799 
! Port Impedance         50               0                50               0                
62                             0.199512901199631 12.4574216876448 0.834813942900742 100.51999313309  0.834813942900743 100.51999313309  0.200638602081816 13.0174016533698 
! Gamma         88.8893425578336 3006.4854423676  87.5245903997947 2990.14039179078 
! Port Impedance         50               0                50               0                
63                             0.201052952563807 8.95335471158758 0.832378637187149 96.4367030709629 0.832378637187149 96.4367030709629 0.202249119378169 9.61288607126097 
! Gamma         90.1904410929448 3055.12575666655 88.809643515745  3038.52308550982 
! Port Impedance         50               0                50               0                
64                             0.201579202099169 5.45302178220457 0.830121829338537 92.3565789099141 0.830121829338536 92.3565789099141 0.202852957270643 6.21692160617157 
! Gamma         91.4916230863474 3103.78115380146 90.0948227209591 3086.92091590931 
! Port Impedance         50               0                50               0                
65                             0.201097907645929 1.9601053159226  0.82804656033463 88.2778908470588 0.82804656033463 88.2778908470588 0.202456764002346 2.83438580357623 
! Gamma         92.7929752229093 3152.45198268731 91.3802130437698 3135.33423538483 
! Port Impedance         50               0                50               0                
66                             0.199619003735002 -1.52172274989015 0.826152496620659 84.1988919088609 0.826152496620659 84.1988919088609 0.20107098219162 -0.529736100986454 
! Gamma         94.0945818950899 3201.13859700852 92.6658974137717 3183.76340138224 
! Port Impedance         50               0                50               0                
67                             0.197156051896773 -4.98854446415318 0.824435993704341 80.1178494328576 0.824435993704341 80.1178494328576 0.198709820556599 -3.87004692000667 
! Gamma         95.3965254968453 3249.84135571901 93.9519569469856 3232.20877690036 
! Port Impedance         50               0                50               0                
68                             0.193726266599598 -8.43592406398665 0.822890201478427 76.0330759506485 0.822890201478426 76.0330759506485 0.195391310475611 -7.18040933592461 
! Gamma         96.6988867110944 3298.56062354136 95.238471229735  3280.67073099939 
! Port Impedance         50               0                50               0                
69                             0.189350614620058 -11.8585992137785 0.821505210051774 71.9429591600648 0.821505210051774 71.9429591600647 0.191137448007959 -10.4535680243536 
! Gamma         98.001744783242  3347.29677145856 96.5255185843886 3329.14963928745 
! Port Impedance         50               0                50               0                
70                             0.184053985259032 -15.2501081367641 0.820268235707914 67.8459906658978 0.820268235707914 67.8459906658978 0.185974423053949 -13.6806896758487 
! Gamma         99.3051777922389 3396.05017720228 97.8131763360857 3377.64588442652 
! Port Impedance         50               0                50               0                
71                             0.177865429521224 -18.6023152929732 0.819163847208683 63.7407931488425 0.819163847208684 63.7407931488425 0.179932940146752 -16.8507766615787 
! Gamma         100.60926290826  3444.82122575619 99.1015210665443 3426.15985664237 
! Port Impedance         50               0                50               0                
72                             0.170818468959292 -21.9047808318213 0.818174232932828 59.6261455902897 0.818174232932829 59.6261455902896 0.17304864116291 -19.9498903803345 
! Gamma         101.914076649685 3493.61030984697 100.390628866485 3474.6919542293  
! Port Impedance         50               0                50               0                
73                             0.162951480740685 -25.1438896685603 0.81727950920356 55.5010061483636 0.817279509203561 55.5010061483636 0.165362651076366 -22.9600880872156 
! Gamma         103.21969512811  3542.41783047176 101.680575579562 3523.24258408163 
! Port Impedance         50               0                50               0                
74                             0.154308176934555 -28.3016060438172 0.816458069590563 51.3645322454742 0.816458069590564 51.3645322454741 0.156922287245589 -25.8579238891462 
! Gamma         104.526194293311 3591.24419740444 102.971437043923 3571.81216222867 
! Port Impedance         50               0                50               0                
75                             0.144938217767973 -31.3536323269849 0.815686973921421 47.2160974025826 0.815686973921421 47.2160974025826 0.147782007295065 -28.6122757285008 
! Gamma         105.833650171682 3640.08982974271 104.263289330187 3620.40111438614 
! Port Impedance         50               0                50               0                
76                             0.134898039405001 -34.2665944097634 0.814942374259598 43.0553043430922 0.814942374259598 43.0553043430922 0.138004732427939 -31.181108491744 
! Gamma         107.14213910262  3688.95515645676 105.556208977184 3669.00987653134 
! Port Impedance         50               0                50               0                
77                             0.124252055185836 -36.993585114456 0.814199973221302 38.8819939010711 0.814199973221302 38.8819939010711 0.127663795979954 -33.5065189051019 
! Gamma         108.45173796916  3737.84061696874 106.850273223601 3717.63889549073 
! Port Impedance         50               0                50               0                
78                             0.113074544764854 -39.4668337387178 0.813435507853981 34.6962492987685 0.813435507853981 34.6962492987685 0.116845978634535 -35.5069382027476 
! Gamma         109.762524433823 3786.7466617409  108.145560245488 3766.28862956319 
! Port Impedance         50               0                50               0                
79                             0.101452869198337 -41.585130684601 0.812625249991134 30.4983954326736 0.812625249991134 30.4983954326736 0.105656500957549 -37.0645256966787 
! Gamma         111.074577168531 3835.67375289327 109.442149387633 3814.95954915174 
! Port Impedance         50               0                50               0                
80                             0.0894933624711529 -43.1912249176129 0.81174651175836 26.2889928987288 0.811746511758359 26.2889928987288 0.0942276592611772 -38.0042920328112 
! Gamma         112.387976087603 3884.62236485655 110.740121398322 3863.65213744105 
! Port Impedance         50               0                50               0                
81                             0.0773329235557952 -44.029088942312 0.810778142909413 22.0688266278027 0.810778142909413 22.0688266278027 0.0827344512237741 -38.059033932901 
! Gamma         113.702802582093 3933.59298504006 112.039558671004 3912.36689110432 
! Port Impedance         50               0                50               0                
82                             0.0651635412533859 -43.6589307490546 0.809701005173234 17.8388891582326 0.809701005173235 17.8388891582327 0.071423891162691 -36.8112655202583 
! Gamma         115.019139756377 3982.58611454117 113.340545483465 3961.10432102276 
! Port Impedance         50               0                50               0                
83                             0.0532881925886943 -41.282258907681 0.8084984079842  13.6003587607748 0.808498407984199 13.6003587607748 0.0606708142611371 -33.6063601795614 
! Gamma         116.337072671789 4031.60226888209 114.643168246106 4009.86495307451 
! Port Impedance         50               0                50               0                