! Touchstone file exported from HFSS 2024.2.0
!        File:           C:/Users/vaintrug/Documents/Ansoft_Workspace/Comparaison_Calculs_HFSS/1_VarPort.aedt
!        Generated:      03:22:16 PM Jan 21, 2025
!        Design:         1_NoDeembed_FacePortFree
!        Project:        1_VarPort
!        Setup:          Setup1
!        Solution:       Sweep
!
! Variables:
!        $Lenght = 1500um
!        $PortSize = 100um
!        Gap = 30um
!        Th = 2um
!        X_centralStrip = 20um
!        X_masse = 200um
!        Y_Sub = 1.5mm
!        Z_Box = 400um
!        Z_Sub = 200um
!
# GHz S MA R 50.000000
! Terminal data exported
! Port[1] = 1
! Port[2] = 2
1                              0.0207139465060377 62.3970134381796 0.989039885626498 -4.43685331160377 0.989039885626498 -4.43685331160377 0.0207126068732962 62.4066747275063 
! Gamma         5.69259637666644 49.9499055283195 5.64003840971553 49.8962251460151 
! Port Impedance         50               0                50               0                
2                              0.0369138468812847 69.4114681315146 0.986493238935322 -8.77048949872241 0.986493238935323 -8.77048949872241 0.0369141332156142 69.4321129094476 
! Gamma         7.46965560521397 98.631739194252  7.31574064775773 98.6728002272937 
! Port Impedance         50               0                50               0                
3                              0.0534787399721494 69.813607477741  0.984005150876289 -13.1081217921259 0.984005150876289 -13.1081217921259 0.0534825295062019 69.842097952183  
! Gamma         8.90577356252006 147.313993927097 8.74050077020096 147.464506856062 
! Port Impedance         50               0                50               0                
4                              0.0699236620422689 67.997467220695  0.981271145465097 -17.4440902864208 0.981271145465098 -17.4440902864208 0.069931763459359 68.0332861470916 
! Gamma         10.2499843496595 196.048272328095 10.0955815049101 196.28276704571  
! Port Impedance         50               0                50               0                
5                              0.085988151617766 65.2058209583312 0.97824526598363 -21.7728251006886 0.97824526598363 -21.7728251006887 0.0860011980478781 65.2490783696631 
! Gamma         11.5775415575626 244.810021641446 11.4355894474699 245.114162740673 
! Port Impedance         50               0                50               0                
6                              0.101506013695935 61.9150402534436 0.974940263804267 -26.0904272370869 0.974940263804267 -26.0904272370869 0.10152464192741 61.9659848394022 
! Gamma         12.9131401008441 293.580311405776 12.7813797256856 293.947349609235 
! Port Impedance         50               0                50               0                
7                              0.116353723469013 58.3446120951353 0.971389072604936 -30.3940261002918 0.971389072604937 -30.3940261002918 0.11637860348785 58.4035309451923 
! Gamma         14.2653063745586 342.347200332368 14.1413020544902 342.774078742191 
! Port Impedance         50               0                50               0                
8                              0.130432377098312 54.6093441770132 0.967633840236301 -34.6814874490951 0.967633840236301 -34.6814874490951 0.13046421123558 54.6765461180637 
! Gamma         15.6364194425722 391.103047491753 15.5182394476537 391.588484760329 
! Port Impedance         50               0                50               0                
9                              0.143660553073063 50.7750190782616 0.963721303335671 -38.9512894099662 0.963721303335671 -38.9512894099663 0.143700069484023 50.850836960278  
! Gamma         17.0261812288437 439.842836426489 16.9124265533004 440.386427679465 
! Port Impedance         50               0                50               0                
10                             0.155970952456956 46.8819154555872 0.959700098297404 -43.2024588462031 0.959700098297404 -43.2024588462031 0.15601889849265 46.966712598234  
! Gamma         18.4330292067877 488.563263025043 18.3227391233173 489.165043979689 
! Port Impedance         50               0                50               0                
11                             0.167308432128223 42.9559021334972 0.955618864595347 -47.4345265603665 0.955618864595347 -47.4345265603665 0.167365568799606 43.0500795514498 
! Gamma         19.8547989122245 537.262221533632 19.7473531104673 537.92244650043  
! Port Impedance         50               0                50               0                
12                             0.177628570596225 39.0141474179814 0.951524793514602 -51.6474860802893 0.951524793514604 -51.6474860802893 0.177695668312701 39.1181512057043 
! Gamma         21.2890734952006 585.938491050231 21.1841132798929 586.657514461108 
! Port Impedance         50               0                50               0                
13                             0.186896448766656 35.068277629348  0.947462499321076 -55.8417510077352 0.947462499321077 -55.8417510077352 0.186974284338243 35.18260666597   
! Gamma         22.7333849347426 634.591526539764 22.630753312929  635.369736735204 
! Port Impedance         50               0                50               0                
14                             0.195085535875717 31.1262371732934 0.94347315618589 -60.0181100114998 0.94347315618589 -60.0181100114998 0.195174890759795 31.2514513865414 
! Gamma         24.1853361880448 683.221307316861 24.0850324878278 684.059088180037 
! Port Impedance         50               0                50               0                
15                             0.202176653645808 27.1934469643509 0.939593862760388 -64.177680052289 0.939593862760388 -64.177680052289 0.202278313460389 27.3301765232544 
! Gamma         25.642676408985  731.82821989872  25.5448213333908 732.725928070017 
! Port Impedance         50               0                50               0                
16                             0.208157022469609 23.2735641535838 0.935857200948244 -68.3218588927639 0.935857200948244 -68.3218588927639 0.208271777826712 23.4225199156763 
! Gamma         27.1033458478635 780.412963244856 27.0081539632519 781.370914667087 
! Port Impedance         50               0                50               0                
17                             0.213019402655291 19.3690054483155 0.932290956875242 -72.4522779085525 0.932290956875242 -72.4522779085525 0.213148051405778 19.5309910773506 
! Gamma         28.565499910288  828.976470543166 28.4732575271161 829.994932695786 
! Port Impedance         50               0                50               0                
18                             0.216761343672624 15.4813253931764 0.928917973837746 -76.5707560080328 0.928917973837745 -76.5707560080328 0.216904694682979 15.6572515706826 
! Gamma         30.0275185656387 877.519843824096 29.9385656350887 878.599031837192 
! Port Impedance         50               0                50               0                
19                             0.219384550804366 11.6115035014545 0.925756109859967 -80.6792552026119 0.925756109859966 -80.6792552026119 0.219543429443838 11.8024048437214 
! Gamma         31.4880052396208 926.044299611272 31.4027203457026 927.184374942315 
! Port Impedance         50               0                50               0                
20                             0.220894374147912 7.76017380743838 0.922818276303212 -84.7798381417814 0.922818276303211 -84.7798381417814 0.221069629713328 7.96722913725451 
! Gamma         32.9457784704001 974.551124008584 32.8645663530729 975.752194990192 
! Port Impedance         50               0                50               0                
21                             0.221299420746956 3.92781895282935 0.920112538321994 -88.8746277395858 0.920112538321993 -88.8746277395858 0.221491936162016 4.15237588688745 
! Gamma         34.3998585848635 1023.04163612016 34.323139739216  1024.30375983673 
! Port Impedance         50               0                50               0                
22                             0.220611287293759 0.114944768475317 0.917642262420842 -92.9657688892801 0.917642262420843 -92.9657688892801 0.220821991526681 0.358549742256152 
! Gamma         35.8494513681663 1071.51715887839 35.7776534122113 1072.84034389183 
! Port Impedance         50               0                50               0                
23                             0.218844408217725 -3.67775198609664 0.915406300649679 -97.0553921894903 0.915406300649679 -97.0553921894903 0.21907429206308 -3.41331665489029 
! Gamma         37.2939300605426 1119.97899617121 37.2274806469573 1121.36320593263 
! Port Impedance         50               0                50               0                
24                             0.216016011834375 -7.44921107205729 0.913399204906158 -101.145579589878 0.913399204906158 -101.145579589878 0.216266147945963 -7.16188102538773 
! Gamma         38.7328167949528 1168.428415494   38.672137862663  1169.87357212389 
! Port Impedance         50               0                50               0                
25                             0.212146176084577 -11.1978191674549 0.911611468096336 -105.238331870823 0.911611468096337 -105.238331870823 0.212417744519008 -10.885189909434 
! Gamma         40.1657642511904 1216.86663527853 40.1112674394665 1218.372623532   
! Port Impedance         50               0                50               0                
26                             0.207257974240609 -14.9211884577707 0.910029791679503 -109.335537923952 0.910029791679503 -109.335537923952 0.207552295285968 -14.5804414659477 
! Gamma         41.5925380574295 1265.29481603713 41.5446211553675 1266.86148735423 
! Port Impedance         50               0                50               0                
27                             0.201377700701834 -18.6158839143312 0.908637381138667 -113.438945867816 0.908637381138667 -113.438945867816 0.201696277538268 -18.2436915317245 
! Gamma         43.013000339247  1313.71405475211 42.9720446049414 1315.34123124598 
! Port Impedance         50               0                50               0                
28                             0.194535167180436 -22.2770714314927 0.907414272296631 -117.550136116761 0.907414272296631 -117.550136116761 0.194879742054186 -21.8694728966904 
! Gamma         44.4270945891323 1362.12538178635 44.3934628316562 1363.81286008432 
! Port Impedance         50               0                50               0                
29                             0.18676406101613 -25.8980451425426 0.906337692030812 -121.670496613033 0.906337692030812 -121.670496613033 0.187136690339363 -25.4502827666521 
! Gamma         45.8348320248296 1410.5297598446  45.8088673152022 1412.27731473863 
! Port Impedance         50               0                50               0                
30                             0.178102360675433 -29.4695688899114 0.905382456870783 -125.801200520683 0.905382456870782 -125.801200520683 0.178505517162883 -28.9758683154726 
! Gamma         47.2362794035885 1458.92808445245 47.218304337714  1460.73547232712 
! Port Impedance         50               0                50               0                
31                             0.168592810385045 -32.9789268195938 0.90452141217118 -129.943186771825 0.904521412171179 -129.943186771825 0.169029524672782 -32.4321973974219 
! Gamma         48.63154830186   1507.32118565979 48.621864698141  1509.18814761286 
! Port Impedance         50               0                50               0                
32                             0.158283469458187 -36.4085073132833 0.903725913047663 -134.097143911109 0.903725913047662 -134.097143911109 0.158757530752387 -35.7999263448288 
! Gamma         50.0207857667494 1555.70983057405 50.0196747291633 1557.63609528022 
! Port Impedance         50               0                50               0                
33                             0.147228377851815 -39.7336153020933 0.902966346165602 -138.263497750697 0.902966346165601 -138.263497750697 0.147744625292104 -39.0520401414805 
! Gamma         51.4041662600565 1604.09472643945 51.4118885191501 1606.08001273201 
! Port Impedance         50               0                50               0                
34                             0.135488431074186 -42.9189617043082 0.902212688758845 -142.442403350972 0.902212688758845 -142.442403350972 0.136053188825613 -42.1500821060074 
! Gamma         52.7818847586773 1652.47652418054 52.7986812526371 1654.52054334341 
! Port Impedance         50               0                50               0                
35                             0.123132661815429 -45.9127866200358 0.901435098210932 -146.633741832557 0.901435098210932 -146.633741832557 0.123754409979103 -45.0378793855724 
! Gamma         54.1541509329883 1700.85582206708 54.1802435392759 1702.95827985608 
! Port Impedance         50               0                50               0                
36                             0.110240349312708 -48.6365335250641 0.900604522237001 -150.837122470171 0.900604522237002 -150.837122470171 0.110930797283211 -47.630605974542 
! Gamma         55.5211842447367 1749.23316952232 55.5567766464531 1751.3937679317  
! Port Impedance         50               0                50               0                
37                             0.0969048890328305 -50.9656516527466 0.899693316470875 -155.05189040884 0.899693316470874 -155.05189040884 0.0976807662084588 -49.7946716768039 
! Gamma         56.8832098851493 1797.60907089454 56.9284885171053 1799.82750967933 
! Port Impedance         50               0                50               0                
38                             0.0832416263278489 -52.6914354786328 0.898675853392331 -159.277140216316 0.898675853392331 -159.277140216316 0.0841278110337302 -51.3083725766129 
! Gamma         58.2404554276099 1845.98398913348 58.2955904710001 1848.25996712987 
! Port Impedance         50               0                50               0                
39                             0.0694053458439306 -53.4389135344726 0.897529104235244 -163.511735284457 0.897529104235244 -163.511735284457 0.0704405891177792 -51.7792230921885 
! Gamma         59.5931481133501 1894.35834933839 59.6582945237521 1896.69156555825 
! Port Impedance         50               0                50               0                
40                             0.0556338538142764 -52.4733730251986 0.896233174223581 -167.754332900415 0.896233174223581 -167.754332900415 0.0568815198626308 -50.456643508802 
! Gamma         60.9415126666369 1942.73254213541 61.0168111934387 1945.1226966959  
! Port Impedance         50               0                50               0                
41                             0.0423715299635407 -48.2035647994528 0.894771771288009 -172.003414566752 0.894771771288008 -172.003414566752 0.0439379680453616 -45.7842993372407 
! Gamma         62.2857695755326 1991.10692684527 62.3713477804765 1993.55372172912 
! Port Impedance         50               0                50               0                
42                             0.0306648818246504 -36.9398057673201 0.893132589570468 -176.257320926799 0.893132589570468 -176.257320926799 0.0327051881531218 -34.4493775341791 
! Gamma         63.6261337511439 2039.4818344505  63.7221069983145 2041.98497412313 
! Port Impedance         50               0                50               0                
43                             0.0232917876850024 -12.2327758474282 0.891307591499624 179.485709574628 0.891307591499624 179.485709574628 0.0257925670226391 -11.5935621366035 
! Gamma         64.9628135255911 2087.85757035425 65.0692859279371 2090.41676225661 
! Port Impedance         50               0                50               0                
44                             0.0245723941093691 20.4686876866071 0.889293175949654 175.227499343414 0.889293175949653 175.227499343414 0.0268226473481123 17.7169773495963 
! Gamma         66.2960099133801 2136.2344169087  66.4130752503126 2138.8493718354  
! Port Impedance         50               0                50               0                
45                             0.0334016634047159 40.8718722956268 0.887090224728122 170.969888791174 0.887090224728122 170.969888791174 0.0349824215626191 37.3873073534916 
! Gamma         67.6259161033356 2184.61263575942 67.753658680549  2187.283068139   
! Port Impedance         50               0                50               0                
46                             0.0453804086990393 49.618157000948  0.884704025037793 166.7146932712   0.884704025037792 166.7146932712   0.0464711994195658 46.6018017935978 
! Gamma         68.9527171418738 2232.99246997362 69.0912126071245 2235.71809807401 
! Port Impedance         50               0                50               0                
47                             0.0583663408258215 52.7400444488334 0.882144071208938 162.463661080574 0.882144071208938 162.463661080574 0.0591494894401334 50.2327989594054 
! Gamma         70.2765897604796 2281.37414599327 70.4259058639412 2284.15469203081 
! Port Impedance         50               0                50               0                
48                             0.0715571436144038 53.1533500064753 0.8794237544438  158.218433770055 0.8794237544438  158.218433770055 0.0721398107846574 51.0362251530063 
! Gamma         71.5977023298745 2329.75787537936 71.7578996386487 2332.59306561283 
! Port Impedance         50               0                50               0                
49                             0.0845943703889655 52.126031196871  0.876559954132649 153.980509886595 0.876559954132649 153.980509886595 0.0850387340559327 50.2976479511188 
! Gamma         72.9162149199949 2378.14385643673 73.0873474727837 2381.03342116395 
! Port Impedance         50               0                50               0                
50                             0.0972787321888452 50.260652786275  0.873572548130331 149.751213110045 0.873572548130331 149.751213110045 0.0976229299740466 48.6493498840654 
! Gamma         74.2322794258029 2426.53227564978 74.414395348144  2429.47594918841 
! Port Impedance         50               0                50               0                
51                             0.109478720867815 47.8731092684956 0.870483861982175 145.531665534093 0.870483861982175 145.531665534093 0.10974756579515 46.4290446966149 
! Gamma         75.5460397674106 2474.92330898589 75.7391818250249 2477.92082961068 
! Port Impedance         50               0                50               0                
52                             0.121097094378333 45.1432447982689 0.867318078328467 141.322766620648 0.867318078328466 141.322766620648 0.121307582532991 43.8311235354853 
! Gamma         76.8576321226716 2523.31712306454 77.0618382429998 2526.36823292233 
! Port Impedance         50               0                50               0                
53                             0.132056928966311 42.1804853085725 0.864100627639435 137.125178110118 0.864100627639434 137.125178110118 0.132221215325453 40.9746787071109 
! Gamma         78.1671852069909 2571.71387622494 78.3824889448806 2574.81832122081 
! Port Impedance         50               0                50               0                
54                             0.142295146408502 39.0550737912556 0.860857580153454 132.939314954456 0.860857580153454 132.939314954456 0.142422242078756 37.9365015411363 
! Gamma         79.4748205667667 2620.11371945775 79.7012515384059 2623.27124912165 
! Port Impedance         50               0                50               0                
55                             0.151759191677208 35.8141067606183 0.857615056666796 128.765342127263 0.857615056666796 128.765342127263 0.151855980954257 34.768235147398  
! Gamma         80.780652896868  2668.51679725557 81.0182371656706 2671.72716460278 
! Port Impedance         50               0                50               0                
56                             0.160405142525108 32.4903123140585 0.854398672922338 124.6031769996   0.854398672922337 124.6031769996   0.160477019370454 31.5058431524953 
! Gamma         82.0847903607021 2716.92324837418 82.3335507932667 2720.18620975415 
! Port Impedance         50               0                50               0                
57                             0.168196509635411 29.1071248546923 0.851233029090009 120.452496836992 0.851233029090009 120.452496836992 0.168247791323858 28.1751160618393 
! Gamma         83.3873349207953 2765.33320649683 83.6472915085535 2768.64852142905 
! Port Impedance         50               0                50               0                
58                             0.175103388241393 25.6817617539386 0.848141252502313 116.312750875307 0.848141252502313 116.312750875307 0.175137593244687 24.7950232661168 
! Gamma         84.6883826603824 2813.74680084713 84.9595528087484 2817.11423186156 
! Port Impedance         50               0                50               0                
59                             0.181101800805033 22.2271700305259 0.845144598648958 112.183176389327 0.845144598648959 112.183176389327 0.181121841055875 21.3798394855731 
! Gamma         85.9880241113812 2862.16415672137 86.2704228984161 2865.58346918557 
! Port Impedance         50               0                50               0                
60                             0.186173154450436 18.7533082302282 0.842262112670835 108.062818137621 0.842262112670835 108.062818137621 0.186181471960709 17.9405467828941 
! Gamma         87.2863445682641 2910.58539595539 87.5799849810675 2914.05635791882 
! Port Impedance         50               0                50               0                
61                             0.190303778278619 15.2680243518202 0.839510351285554 103.950550585843 0.839510351285554 103.950550585843 0.190302444650292 14.4857945684952 
! Gamma         88.5834243962362 2959.01063736077 88.888317540907  2962.53301938091 
! Port Impedance         50               0                50               0                
62                             0.193484526221058 11.7776821908991 0.836903163371593 99.845102335571  0.836903163371593 99.8451023355709 0.193475316859888 11.0225832162531 
! Gamma         89.8793393268961 3007.43999709643 90.1954946162194 3011.01357208027 
! Port Impedance         50               0                50               0                
63                             0.195710441313297 8.2876287062732  0.834451526277825 95.7450822298142 0.834451526277824 95.7450822298142 0.195694892078197 7.55677218425224 
! Gamma         91.1741607483022 3055.87358899296 91.5015860696001 3059.49813203429 
! Port Impedance         50               0                50               0                
64                             0.196980481914077 4.80256108319386 0.832163434313344 91.6490066626331 0.832163434313344 91.6490066626331 0.196959933402246 4.09347664540524 
! Gamma         92.4679559752189 3104.31152485277 92.806657839733  3107.98681308477 
! Port Impedance         50               0                50               0                
65                             0.197297312145079 1.32683260711697 0.830043835731114 87.555327663586  0.830043835731114 87.555327663586  0.197272945188463 0.637395190516919 
! Gamma         93.7607885131448 3152.75391471077 94.1107721908298 3156.47972714295 
! Port Impedance         50               0                50               0                
66                             0.196667159033819 -2.13527478485516 0.828094614750377 83.4624613825739 0.828094614750377 83.4624613825739 0.196640023947523 -2.80690115263893 
! Gamma         95.0527183080102 3201.20086705611 95.4139879424784 3204.97698444368 
! Port Impedance         50               0                50               0                
67                             0.195099738312573 -5.57928937165027 0.826314615682957 79.3688166311287 0.826314615682957 79.3688166311286 0.195070779736491 -6.23469513547576 
! Gamma         96.3438019782466 3249.65248903301 96.7163606957594 3253.47869373028 
! Port Impedance         50               0                50               0                
68                             0.192608250086803 -9.00028048136349 0.824699706906626 75.2728231690713 0.824699706906626 75.2728231690712 0.192578328824485 -9.64084412679462 
! Gamma         97.6340930438591 3298.10888662982 98.0179430426812 3301.98496245037 
! Port Impedance         50               0                50               0                
69                             0.189209444984767 -12.3925613021474 0.823242883181095 71.1729594347788 0.823242883181095 71.1729594347788 0.189179357949527 -13.0194747996774 
! Gamma         98.923642133652  3346.57016481618 99.3187847650976 3350.4958969172  
! Port Impedance         50               0                50               0                
70                             0.184923761303316 -15.7493402803851 0.821934405511919 67.0677794220833 0.821934405511918 67.0677794220833 0.184894260516301 -16.3636276473616 
! Gamma         100.212497184923 3395.03642768711 100.618933027381 3399.01160243957 
! Port Impedance         50               0                50               0                
71                             0.179775534523279 -19.0622907390193 0.820761978345448 62.9559383932991 0.820761978345448 62.9559383932991 0.179747346038181 -19.6648204669498 
! Gamma         101.500703629988 3443.50777858461 101.918432549555 3447.5321834565  
! Port Impedance         50               0                50               0                
72                             0.173793283073089 -22.3209963484482 0.819710964230973 58.8362171017492 0.819710964230974 58.8362171017492 0.173767126716744 -22.9124880248696 
! Gamma         102.788304572512 3491.98432019023 103.217325779465 3496.05774364125 
! Port Impedance         50               0                50               0                
73                             0.167010079291656 -25.5122103819826 0.818764636173016 54.7075441681884 0.818764636173016 54.7075441681884 0.166986690232324 -26.093235409763 
! Gamma         104.075340952296 3540.4661546226  104.515653046509 3544.58838599542 
! Port Impedance         50               0                50               0                
74                             0.159464024275072 -28.6188343856495 0.817904467612519 50.5690162309753 0.817904467612519 50.5690162309753 0.159444177675923 -29.1898102931398 
! Gamma         105.361851697546 3588.95338351334 105.813452714174 3593.1242129323  
! Port Impedance         50               0                50               0                
75                             0.15119886264032 -31.6184684287253 0.817110459346345 46.4199154628039 0.817110459346345 46.4199154628039 0.151183403085467 -32.179645803692 
! Gamma         106.647873868966 3637.44610806707 107.110761310662 3641.66532635233 
! Port Impedance         50               0                50               0                
76                             0.14226480442439 -34.4812947612624 0.816361501664181 42.2597240326912 0.816361501664181 42.2597240326912 0.142254682521304 -35.0327353778886 
! Gamma         107.933442796484 3685.94442912992 108.407613666487 3690.2118277003  
! Port Impedance         50               0                50               0                
77                             0.132719677533402 -37.1669004715978 0.815635768609142 38.0881350880326 0.815635768609142 38.0881350880326 0.132715997264118 -37.7084448399677 
! Gamma         109.218592202362 3734.4484472293  109.704043031021 3738.76381802302 
! Port Impedance         50               0                50               0                
78                             0.122630637885517 -39.6193675415695 0.814911139594214 33.9050598495003 0.814911139594215 33.9050598495003 0.122634720147243 -40.1505904153709 
! Gamma         110.503354318799 3782.95826261774 111.000081186198 3787.32139801294 
! Port Impedance         50               0                50               0                
79                             0.112076861574871 -41.7594545105984 0.814165641730845 29.7106304516014 0.814165641730845 29.7106304516014 0.112090332335798 -42.2796093258631 
! Gamma         111.787759995956 3831.47397530795 112.295758552519 3835.88466804783 
! Port Impedance         50               0                50               0                
80                             0.101154031907173 -43.4717578932858 0.813377904285166 25.5051982270309 0.813377904285165 25.5051982270309 0.101178947912237 -43.9797202211718 
! Gamma         113.071838804237 3879.99568510983 113.591104287154 3884.45372823096 
! Port Impedance         50               0                50               0                
81                             0.0899822293638434 -44.5829920032338 0.812527614820416 21.2893272306347 0.812527614820418 21.2893272306348 0.0900212601416644 -45.0772414683959 
! Gamma         114.355619127402 3928.5234916415  114.886146374272 3933.02867841251 
! Port Impedance         50               0                50               0                
82                             0.0787205156799793 -44.8243605762041 0.81159596500208 17.0637829177441 0.81159596500208 17.0637829177441 0.0787772035901243 -45.303131421372 
! Gamma         115.639128250063 3977.05749436343 116.180911711112 3981.60961821882 
! Port Impedance         50               0                50               0                
83                             0.0675951163769818 -43.7661438450528 0.81056607290179 12.829516039379  0.81056607290179 12.829516039379  0.0676742142134799 -44.2281509391225 
! Gamma         116.922392438207 4025.59779258388 117.475426187169 4030.19664706846 
! Port Impedance         50               0                50               0                