! Touchstone file exported from HFSS 2024.2.0
!        File:           C:/Users/vaintrug/Documents/Ansoft_Workspace/Comparaison_Calculs_HFSS/1_VarPort.aedt
!        Generated:      03:22:18 PM Jan 21, 2025
!        Design:         1_NoDeembed_FacePortFree
!        Project:        1_VarPort
!        Setup:          Setup1
!        Solution:       Sweep
!
! Variables:
!        $Lenght = 2000um
!        $PortSize = 120um
!        Gap = 30um
!        Th = 2um
!        X_centralStrip = 20um
!        X_masse = 200um
!        Y_Sub = 2mm
!        Z_Box = 400um
!        Z_Sub = 200um
!
# GHz S MA R 50.000000
! Terminal data exported
! Port[1] = 1
! Port[2] = 2
1                              0.0271588672986961 60.725162291818  0.985387223900108 -5.89818852377813 0.985387223900108 -5.89818852377813 0.0271591168778261 60.7074418915295 
! Gamma         5.81213119404755 50.0226184253021 5.83164838984437 50.1289437625444 
! Port Impedance         50               0                50               0                
2                              0.0481911272578213 66.5061359411085 0.981876089003655 -11.6599321934844 0.981876089003656 -11.6599321934844 0.0481929606874061 66.4682588703724 
! Gamma         7.66717726512489 98.6447688577353 7.67401390047867 98.8446558099567 
! Port Impedance         50               0                50               0                
3                              0.0694960999510902 65.57867768682   0.978336369321049 -17.4237082107322 0.978336369321048 -17.4237082107322 0.0694981760902597 65.5181814039312 
! Gamma         9.12548538821832 147.256436173245 9.11974329689797 147.571140679111 
! Port Impedance         50               0                50               0                
4                              0.0903052738064457 62.412060897814  0.974400884299041 -23.1791732850501 0.97440088429904 -23.1791732850501 0.0903053696621716 62.3285580644459 
! Gamma         10.4753356235074 195.934293311097 10.4640712619714 196.367929583177 
! Port Impedance         50               0                50               0                
5                              0.110180929825309 58.2742600263553 0.970050054496932 -28.9172227057862 0.970050054496932 -28.9172227057862 0.110176861641409 58.1673289303476 
! Gamma         11.8060960252383 244.648018149593 11.7928170126678 245.200548020149 
! Port Impedance         50               0                50               0                
6                              0.128829156047824 53.6514284056657 0.965345599983792 -34.6316714095593 0.965345599983792 -34.6316714095593 0.128818814827618 53.5203923662654 
! Gamma         13.1457528220529 293.374162858315 13.1320385408744 294.045015590289 
! Port Impedance         50               0                50               0                
7                              0.146029509897194 48.7677526028076 0.960377692772201 -40.3183973531432 0.960377692772201 -40.3183973531432 0.146010834284743 48.6116676796053 
! Gamma         14.5034083077812 342.098437961169 14.4899623146779 342.887137938979 
! Port Impedance         50               0                50               0                
8                              0.161610534412523 43.7404642402562 0.955247643009151 -45.9749654027546 0.955247643009151 -45.9749654027546 0.161581480151108 43.5581150690582 
! Gamma         15.8813418494197 390.812005190639 15.8684564910589 391.718241180949 
! Port Impedance         50               0                50               0                
9                              0.175439279752329 38.6364437487665 0.950058949050527 -51.6004370309525 0.950058949050527 -51.6004370309525 0.175397787898247 38.4263277052792 
! Gamma         17.2790013379542 439.509226488484 17.2667665020167 440.532825473264 
! Port Impedance         50               0                50               0                
10                             0.187415258452387 33.4961796154732 0.944911309171807 -57.1952216332129 0.944911309171807 -57.195221633213 0.187359220784026 33.2564782198786 
! Gamma         18.6945561580313 488.186477020041 18.6829595778445 489.327370086051 
! Port Impedance         50               0                50               0                
11                             0.197465881409293 28.3451527047296 0.939896260272802 -62.7609226964651 0.939896260272801 -62.7609226964651 0.197393101673795 28.0736899928034 
! Gamma         20.1255973829742 536.84149756989  20.1145761812264 538.099692274754 
! Port Impedance         50               0                50               0                
12                             0.205542495562684 23.1997994374545 0.935094024191841 -68.3001684518048 0.93509402419184 -68.3001684518048 0.205450645380277 22.8939858698042 
! Gamma         21.569495824939  585.473012454548 21.5589645205573 586.848572418822 
! Port Impedance         50               0                50               0                
13                             0.211616835913832 18.070926337873  0.930571355607134 -73.8164294874727 0.930571355607134 -73.8164294874727 0.211503403956044 17.7276852184573 
! Gamma         23.0236034921522 634.08048288902  23.0134698789582 635.57351268047  
! Port Impedance         50               0                50               0                
14                             0.215677927324053 12.9658451852835 0.926380228663487 -79.3138294483872 0.926380228663487 -79.3138294483872 0.215540159846835 12.5815169616173 
! Gamma         24.4853736515259 682.663932962645 24.4755479965945 684.274566983068 
! Port Impedance         50               0                50               0                
15                             0.217729521183342 7.88983878169707 0.922557209140168 -84.7969549965588 0.922557209140168 -84.7969549965588 0.217564351046814 7.4600563291617  
! Gamma         25.9524333297309 731.223818327467 25.9428337362541 732.952212248949 
! Port Impedance         50               0                50               0                
16                             0.21778813783383 2.84727722758544 0.919123371228894 -90.2706699689101 0.919123371228894 -90.2706699689101 0.217592097671421 2.36680206130694 
! Gamma         27.4226253656581 779.760921892125 27.4131807654464 781.607246099047 
! Port Impedance         50               0                50               0                
17                             0.215881752316821 -2.15742693048562 0.916084639177378 -95.7399371411237 0.916084639177377 -95.7399371411237 0.215650865311168 -2.69492207874181 
! Gamma         28.8940296547959 828.276268849938 28.8846813172072 830.240703308415 
! Port Impedance         50               0                50               0                
18                             0.212049125616523 -7.11889186441158 0.913432462043452 -101.209649784056 0.913432462043453 -101.209649784056 0.211778763927405 -7.72111564592972 
! Gamma         30.3649697419346 876.77105665446  30.355671822526  878.853786838817 
! Port Impedance         50               0                50               0                
19                             0.206339754552628 -12.0297470035787 0.911144759849785 -106.68447439978 0.911144759849785 -106.68447439978 0.206024450025906 -12.7061897574678 
! Gamma         31.8340091052089 925.246597202063 31.824728553136  927.447810847858 
! Port Impedance         50               0                50               0                
20                             0.198814393542314 -16.8793769357094 0.909187107380452 -112.168705736005 0.909187107380452 -112.168705736005 0.198447576569423 -17.6418685882542 
! Gamma         33.2999402546174 973.704269581901 33.2906562858541 976.024154134539 
! Port Impedance         50               0                50               0                
21                             0.189546094793829 -21.6522180764907 0.907514144182395 -117.666135275112 0.907514144182395 -117.666135275112 0.189119722335937 -22.515722590678 
! Gamma         34.7617691214486 1022.14548191235 34.7524724383998 1024.58422252212 
! Port Impedance         50               0                50               0                
22                             0.178621726520638 -26.3252592383482 0.906071213843748 -123.179934877701 0.906071213843747 -123.179934877701 0.178125734384284 -27.3090337086641 
! Gamma         36.2186966094716 1070.57164109637 36.2093884376605 1073.12941906252 
! Port Impedance         50               0                50               0                
23                             0.166143981086663 -30.8641184887138 0.904796240394867 -128.712557825943 0.904796240394867 -128.712557825943 0.165565448178701 -31.9934514094351 
! Gamma         37.6700987295883 1118.98412943577 37.6607897720905 1121.66112100923 
! Port Impedance         50               0                50               0                
24                             0.15223401612403 -35.2164918327697 0.903621844578943 -134.265660192712 0.903621844578943 -134.265660192712 0.151555837768348 -36.5253915703094 
! Gamma         39.1155064003328 1167.38428698969 39.1062157520484 1170.1806625412  
! Port Impedance         50               0                50               0                
25                             0.137035187130995 -39.3005103563225 0.902477687426667 -139.840045891705 0.902477687426667 -139.840045891705 0.136233871359873 -40.8360059710585 
! Gamma         40.5545856828289 1215.77339893371 40.5453397585975 1218.68932233491 
! Port Impedance         50               0                50               0                
26                             0.120719097066609 -42.9826017804364 0.90129300509151 -145.435638954674 0.90129300509151 -145.435638954674 0.119760903712487 -44.8118654121266 
! Gamma         41.987119004183  1264.15268688146 41.977950492008  1267.18831512809 
! Port Impedance         50               0                50               0                
27                             0.103497194856933 -46.0319965851536 0.899999269491772 -151.051486284318 0.899999269491772 -151.051486284318 0.102330928071051 -48.2544715642767 
! Gamma         43.4129876938906 1312.5233035363  43.4039345695543 1315.67878654459 
! Port Impedance         50               0                50               0                
28                             0.0856469697812962 -48.0182288425325 0.898532878290873 -156.685793302667 0.898532878290872 -156.685793302667 0.0841894794966057 -50.7861158113271 
! Gamma         44.8321560433083 1360.88632998889 44.823260654332  1364.16181055127 
! Port Impedance         50               0                50               0                
29                             0.0675810499774654 -48.0538752661601 0.896837750051262 -162.335993534564 0.896837750051263 -162.335993534564 0.0656856385422438 -51.6003864623594 
! Gamma         46.2446569842294 1409.24277506228 46.2359652031365 1412.6383889068  
! Port Impedance         50               0                50               0                
30                             0.050061672488426 -44.0756101010138 0.894867681511788 -167.998851298494 0.894867681511788 -167.998851298494 0.0474466467888242 -48.6858689499022 
! Gamma         47.6505793822921 1457.59357624999 47.6421398496346 1461.10945218363 
! Port Impedance         50               0                50               0                
31                             0.034970729803229 -30.906210134287 0.892588318718917 -173.670594474574 0.892588318718916 -173.670594474574 0.0311196914185751 -36.0990619597007 
! Gamma         49.050056889181  1505.93960180221 49.0419203301237 1509.57586194457 
! Port Impedance         50               0                50               0                
32                             0.0275005316425138 -0.749041696341119 0.889978605453121 -179.347072057877 0.889978605453121 -179.347072057877 0.0224772291161252 -0.654939093780749 
! Gamma         50.4432582811632 1554.28165366846 50.435476904301  1558.03841372797 
! Port Impedance         50               0                50               0                
33                             0.0333347286141798 31.2253172878076 0.887031601599636 174.976070853507 0.887031601599636 174.976070853507 0.0294392777418896 37.4102987301967 
! Gamma         51.8303791570973 1602.62047099615 51.823006127924  1606.4978405774  
! Port Impedance         50               0                50               0                
34                             0.047529812428222 46.1239144684078 0.883754608346214 169.303209515165 0.883754608346214 169.303209515165 0.044990213826026 51.8557797689952 
! Gamma         53.2116348724664 1650.95673399104 53.2047238586295 1654.95481694313 
! Port Impedance         50               0                50               0                
35                             0.0643379744692295 50.8902665390378 0.880168590921164 163.638557135177 0.880168590921163 163.638557135177 0.0625855386310339 55.4818134481312 
! Gamma         54.5872545865883 1699.29106794683 54.5808593688832 1703.40996270702 
! Port Impedance         50               0                50               0                
36                             0.0816277890999299 51.2620049027475 0.87630694566336 157.985993206676 0.876306945663359 157.985993206676 0.0803494231986946 55.0196094666619 
! Gamma         55.957476292495  1747.62404733611 55.9516504354579 1751.86384727394 
! Port Impedance         50               0                50               0                
37                             0.098578091153106 49.541555475853  0.872213708646238 152.348911247988 0.872213708646238 152.348911247988 0.0976142590171475 52.7220315207043 
! Gamma         57.322542707304  1795.95619984752 57.3173392865897 1800.31699364544 
! Port Impedance         50               0                50               0                
38                             0.114771819269464 46.7055369128407 0.867941341125078 146.730092938832 0.867941341125078 146.730092938832 0.114034165585515 49.4752281721252 
! Gamma         58.6826979164178 1844.28801032035 58.6781692891473 1848.76988229953 
! Port Impedance         50               0                50               0                
39                             0.129945901664532 43.2219034127886 0.863548248428193 141.131613487294 0.863548248428192 141.131613487294 0.129381282963164 45.6886956023602 
! Gamma         60.0381846534433 1892.61992449564 60.0343822799368 1897.22295496716 
! Port Impedance         50               0                50               0                
40                             0.143912066749537 39.3395933726498 0.859096192323636 135.554780702672 0.859096192323637 135.554780702672 0.143486325742262 41.5760645564877 
! Gamma         61.3892421469346 1940.95235258617 61.3862164458339 1945.67661816642 
! Port Impedance         50               0                50               0                
41                             0.156527154896457 35.2023803198096 0.854647744184841 130.000107997128 0.854647744184841 130.000107997128 0.156217173740451 37.2593356380405 
! Gamma         62.7361044256672 1989.28567260234 62.7339046594048 1994.13124653129 
! Port Impedance         50               0                50               0                
42                             0.167680039712869 30.8988169399606 0.850263901459943 124.467319583288 0.850263901459942 124.467319583288 0.167469538513599 32.8131515517617 
! Gamma         64.0789990217507 2037.62023349152 64.0776732195959 2042.58718590898 
! Port Impedance         50               0                50               0                
43                             0.177284828921976 26.4863173286652 0.846001958280143 118.955384688043 0.846001958280144 118.955384688043 0.177161998524133 28.2857272281939 
! Gamma         65.4181460151593 2085.95635798287 65.4177409095439 2091.04475621913 
! Port Impedance         50               0                50               0                
44                             0.185276692261427 22.0037404501139 0.84191368770316 113.462576657007 0.841913687703161 113.462576657007 0.185232790772592 23.7096544326767 
! Gamma         66.75375734151   2134.29434525604 66.7543183376668 2139.50425408314 
! Port Impedance         50               0                50               0                
45                             0.191608924096622 17.4784479086069 0.838043862537028 107.986552409619 0.838043862537028 107.986552409619 0.191637411493154 19.1079237081613 
! Gamma         68.0860363393389 2182.6344733604  68.0876074903835 2187.96595523095 
! Port Impedance         50               0                50               0                
46                             0.196250696662525 12.9305364419332 0.834429116928234 102.524447700209 0.834429116928234 102.524447700209 0.196346686508891 14.4975338065396 
! Gamma         69.4151774764576 2230.97700144866 69.4178014846593 2236.43011671081 
! Port Impedance         50               0                50               0                
47                             0.199185299714393 8.37555842254446 0.831097133498486 97.0729839375662 0.831097133498486 97.0729839375662 0.199345207616571 9.89182683143811 
! Gamma         70.7413662365582 2279.32217175109 70.7450844585361 2284.89697886733 
! Port Impedance         50               0                50               0                
48                             0.200408801031183 3.82641458784905 0.828066130987873 91.6285827908224 0.828066130987872 91.6285827908224 0.200630121995845 5.30213792664817 
! Gamma         72.0647791199759 2327.67021144653 72.0696315850404 2333.36676716457 
! Port Impedance         50               0                50               0                
49                             0.199929115674637 -0.705196333467193 0.82534462432139 86.187485325402  0.82534462432139 86.187485325402  0.200210291708359 0.739090865209569 
! Gamma         73.3855837494261 2376.02133427111 73.391609187244  2381.83969381396 
! Port Impedance         50               0                50               0                
50                             0.197765488323907 -5.20753082381759 0.822931431308369 80.7458728813701 0.822931431308369 80.7458728813701 0.198105845006879 -3.78625062086141 
! Gamma         74.7039390443825 2424.37574203541 74.7111749174114 2430.31595925032 
! Port Impedance         50               0                50               0                
51                             0.193948394415673 -9.66757986927097 0.820815906012582 75.2999872605999 0.820815906012583 75.2999872605999 0.194348136676591 -8.26121630950975 
! Gamma         76.0199954599736 2472.73362594783 76.0284780010567 2478.79575345394 
! Port Impedance         50               0                50               0                
52                             0.188519863934012 -14.0697105060979 0.818978386278084 69.8462479699688 0.818978386278085 69.8462479699687 0.188980130146287 -12.6701933309243 
! Gamma         77.3338952651618 2521.09516782493 77.3436595208529 2527.27925713842 
! Port Impedance         50               0                50               0                
53                             0.181534234618321 -18.3939754462169 0.81739085015569 64.3813642889799 0.81739085015569 64.3813642889799 0.182057216674769 -16.992930491287 
! Gamma         78.6457728585461 2569.46054116236 78.656852729923  2575.76664282462 
! Port Impedance         50               0                50               0                
54                             0.173059358890075 -22.613812669473 0.816017781310824 58.9024397969599 0.816017781310824 58.9024397969599 0.173648506109355 -21.2022058989175 
! Gamma         79.9557550955125 2617.82991210486 79.9681833873092 2624.25807579213 
! Port Impedance         50               0                50               0                
55                             0.163178336320246 -26.6926864406582 0.814817245539858 53.4070667466186 0.814817245539857 53.4070667466186 0.163838675449384 -25.2604086671574 
! Gamma         81.2639616413328 2666.20344030642 81.2777701076453 2672.75371491781 
! Port Impedance         50               0                50               0                
56                             0.151991952163148 -30.5788902162707 0.813742178149325 47.8934073982365 0.813742178149325 47.8934073982365 0.152730578187957 -29.1142568420812 
! Gamma         82.5705053195731 2714.58127969751 82.5857247124512 2721.25371345973 
! Port Impedance         50               0                50               0                
57                             0.139622238227045 -34.1970798125665 0.81274187461423 42.3602591910321 0.81274187461423 42.3602591910321 0.140449067497022 -32.6862356383778 
! Gamma         83.8754924709485 2762.96357917387 83.8921525868207 2769.75821970631 
! Port Impedance         50               0                50               0                
58                             0.126218086106903 -37.433775604737 0.811763664620712 36.8071005374856 0.811763664620712 36.8071005374856 0.127147024121572 -35.8600623729396 
! Gamma         85.1790233040374 2811.35048320308 85.197153030832  2818.26737760234 
! Port Impedance         50               0                50               0                
59                             0.111965000781923 -40.1112520376421 0.810754733124435 31.2341141731975 0.810754733124435 31.2341141731975 0.113015772631147 -38.4548400052355 
! Gamma         86.4811922424858 2859.74213236983 86.500819605718  2866.78132726652 
! Port Impedance         50               0                50               0                
60                             0.0971038329471168 -41.9380439898005 0.809664033068359 25.6421854575933 0.809664033068359 25.6421854575933 0.0983048401107473 -40.1769734042568 
! Gamma         87.7820882611787 2908.13866385055 87.803240470631  2915.30020547262 
! Port Impedance         50               0                50               0                
61                             0.0819702566879208 -42.4107012905242 0.808444215300597 20.0328738496662 0.808444215300597 20.0328738496662 0.0833627609818696 -40.5274337043478 
! Gamma         89.0817952177134 2956.54021184323 89.1044987077907 2963.82414606802 
! Port Impedance         50               0                50               0                
62                             0.0670849345030115 -40.6153054124448 0.807053485076064 14.4083569686306 0.807053485076064 14.4083569686306 0.068727388740871 -38.6232867541061 
! Gamma         90.3803921631662 3004.94690794429 90.404672637972  3012.35328034698 
! Port Impedance         50               0                50               0                
63                             0.0533690613791468 -34.8683642099376 0.805457284437925 8.77134814896906 0.805457284437925 8.77134814896912 0.0553310847147035 -32.9059419854973 
! Gamma         91.6779536472788 3053.35888147951 91.7038361205154 3060.88773737158 
! Port Impedance         50               0                50               0                
64                             0.0426093720048514 -22.5192055823914 0.803629698557382 3.12499007189503 0.803629698557382 3.12499007189503 0.0449054424464226 -21.0949493467976 
! Gamma         92.9745500081661 3101.77625979604 93.0020588416762 3109.42764426556 
! Port Impedance         50               0                50               0                
65                             0.0378179305255028 -2.50190621113861 0.801554493465692 -2.52727125210323 0.801554493465692 -2.52727125210323 0.0402042143680799 -2.51125290896484 
! Gamma         94.2702476459137 3150.1991685291  94.2994065868129 3157.97312647205 
! Port Impedance         50               0                50               0                
66                             0.0411570207268656 18.300810017769  0.799225712728369 -8.18182637434403 0.79922571272837 -8.18182637434402 0.0431628391423946 16.9343004444911 
! Gamma         95.5651092849529 3198.62773181354 95.5959415023045 3206.52430797117 
! Port Impedance         50               0                50               0                
67                             0.0508165375476779 31.8867312812259 0.796647789866898 -13.8350492777932 0.796647789866897 -13.8350492777932 0.0522708669941357 30.1804861396387 
! Gamma         96.8591942211906 3247.0620725024  96.8917223386934 3255.08131147521 
! Port Impedance         50               0                50               0                
68                             0.0636116480335775 38.4808205691567 0.793835168451095 -19.4834437480061 0.793835168451096 -19.4834437480061 0.0646153983301679 36.9343790306098 
! Gamma         98.1525585552307 3295.5023123299  98.1868046831609 3303.64425860887 
! Port Impedance         50               0                50               0                
69                             0.0775579448772659 40.793729370907  0.790811458366136 -25.1237818037773 0.790811458366136 -25.1237818037773 0.0782359732438984 39.4854312142137 
! Gamma         99.4452554128615 3343.94857206121 99.4812411791654 3352.21327005108 
! Port Impedance         50               0                50               0                
70                             0.0916478398815087 40.6617637501597 0.787608190096026 -30.7532274047764 0.787608190096026 -30.7532274047765 0.0920878277254942 39.5569480535415 
! Gamma         100.73733515083  3392.40097163825 100.77508172985  3400.78846566937 
! Port Impedance         50               0                50               0                
71                             0.105334788959977 39.088621483127  0.784263254851479 -36.3694398349883 0.784263254851478 -36.3694398349883 0.105593034706293 38.1389292222726 
! Gamma         102.02884555343  3440.85963028212 102.068373691897 3449.36996463182 
! Port Impedance         50               0                50               0                
72                             0.118284119657695 36.6245372513664 0.780819134238358 -41.9706527151005 0.780819134238358 -41.9706527151005 0.11839671601752 35.7886925375384 
! Gamma         103.319832011604 3489.32466660547 103.361162055323 3497.95788550555 
! Port Impedance         50               0                50               0                
73                             0.130268905077278 33.5862262432864 0.777321027918318 -47.5557263244954 0.777321027918318 -47.5557263244954 0.130259281938404 32.8318702530692 
! Gamma         104.610337695964 3537.79619868817 104.653489613049 3546.55234634443 
! Port Impedance         50               0                50               0                
74                             0.14112472820126 30.1661813266696 0.77381498210732 -53.1241726181511 0.77381498210732 -53.1241726181511 0.141008146366285 29.4680808273138 
! Gamma         105.900403714758 3586.2743441639  105.945397118749 3595.15346476111 
! Port Impedance         50               0                50               0                
75                             0.150728366008568 26.4874612895334 0.770346107991251 -58.6761538351982 0.77034610799125 -58.6761538351982 0.15051456632892 25.8255180639192 
! Gamma         107.19006926253  3634.75922027543 107.236923433162 3643.7613579898  
! Port Impedance         50               0                50               0                
76                             0.158986753151233 22.632412944837  0.766956960175974 -64.21245680433  0.766956960175974 -64.21245680433  0.158681541052133 21.9900889180964 
! Gamma         108.47937175977  3683.25094393071 108.52810566289  3692.37614293746 
! Port Impedance         50               0                50               0                
77                             0.165830671280518 18.6585391973102 0.763686124353986 -69.7344458923216 0.763686124353986 -69.7344458923216 0.165436877245021 18.0216935122546 
! Gamma         109.768346981173 3731.7496317582  109.818979286784 3740.99793623926 
! Port Impedance         50               0                50               0                
78                             0.171210782656743 14.6077485991355 0.7605670432484  -75.2439980283907 0.7605670432484  -75.2439980283907 0.170728842492431 13.9637788224318 
! Gamma         111.057029176131 3780.25540014012 111.109578276626 3789.62685428344 
! Port Impedance         50               0                50               0                
79                             0.175094945371462 10.5120543759633 0.757627092717587 -80.7434234019846 0.757627092717587 -80.7434234019846 0.174523235824954 9.84924194951834 
! Gamma         112.345451181315 3828.76836523766 112.399935206958 3838.26301325236 
! Port Impedance         50               0                50               0                
80                             0.177466326004184 6.39730837336632 0.754886906890741 -86.2353753670662 0.754886906890741 -86.2353753670662 0.176801330897278 5.70429282953852 
! Gamma         113.633644523081 3877.28864303938 113.690081357885 3886.90652914858 
! Port Impedance         50               0                50               0                
81                             0.178322089748619 2.28583523527389 0.752359942754408 -91.7227528598579 0.752359942754407 -91.7227528598579 0.177558436448869 1.55116201550164 
! Gamma         114.921639515336 3925.81634936199 114.980046810516 3935.55751781619 
! Port Impedance         50               0                50               0                
82                             0.177672571923402 -1.8015277364973 0.750052270416573 -97.2085983537325 0.750052270416573 -97.2085983537325 0.176802955413268 -2.58982738715675 
! Gamma         116.209465347716 3974.35159989047 116.269860534961 3984.21609496133 
! Port Impedance         50               0                50               0                
83                             0.17554089460954 -5.84365898358046 0.747962574532281 -102.695994090834 0.747962574532282 -102.695994090834 0.174555889874958 -6.69848932433668 
! Gamma         117.497150169905 4022.89451017407 117.55955047384  4032.88237616318 
! Port Impedance         50               0                50               0                