! Touchstone file exported from HFSS 2024.2.0
!        File:           C:/Users/vaintrug/Documents/Ansoft_Workspace/Comparaison_Calculs_HFSS/1_VarPort.aedt
!        Generated:      03:22:17 PM Jan 21, 2025
!        Design:         1_NoDeembed_FacePortFree
!        Project:        1_VarPort
!        Setup:          Setup1
!        Solution:       Sweep
!
! Variables:
!        $Lenght = 1500um
!        $PortSize = 300um
!        Gap = 30um
!        Th = 2um
!        X_centralStrip = 20um
!        X_masse = 200um
!        Y_Sub = 1.5mm
!        Z_Box = 400um
!        Z_Sub = 200um
!
# GHz S MA R 50.000000
! Terminal data exported
! Port[1] = 1
! Port[2] = 2
1                              0.0211883074331773 63.0307028653122 0.989079694084176 -4.43046806328333 0.989079694084175 -4.43046806328333 0.0211887105580328 63.0143487411598 
! Gamma         5.97320148996681 49.9884562845136 5.94457833634435 49.8981816324731 
! Port Impedance         50               0                50               0                
2                              0.0379739936636535 69.8488980125497 0.986552297734936 -8.76019197456015 0.986552297734936 -8.76019197456014 0.0379693596391621 69.8212436259512 
! Gamma         7.7674655356975  98.6272668317046 7.7242956020338  98.4920184295623 
! Port Impedance         50               0                50               0                
3                              0.0551181420346001 70.1235420512876 0.984045867156324 -13.0941721568589 0.984045867156324 -13.0941721568589 0.0551069525103247 70.0876822631707 
! Gamma         9.20091756853582 147.279484590645 9.15908579734766 147.088180180878 
! Port Impedance         50               0                50               0                
4                              0.0721178385056383 68.2338507375577 0.981267759654567 -17.4259177329435 0.981267759654567 -17.4259177329435 0.0720994003132571 68.1895622903143 
! Gamma         10.5401871739358 195.996498216267 10.4998805753294 195.743266033447 
! Port Impedance         50               0                50               0                
5                              0.0887086917903157 65.4003527192723 0.978178816626494 -21.7496491554622 0.978178816626495 -21.7496491554622 0.0886822578743019 65.3471019012664 
! Gamma         11.8660396222028 244.746804969495 11.8261477119534 244.429582970824 
! Port Impedance         50               0                50               0                
6                              0.104721503707039 62.0869282061899 0.974796237789959 -26.0613481658297 0.974796237789957 -26.0613481658297 0.104686220706384 62.0241929936592 
! Gamma         13.2033822734356 293.507763888462 13.163035117878  293.125796165688 
! Port Impedance         50               0                50               0                
7                              0.120029761367118 58.5063516056737 0.971156691067571 -30.3580547147061 0.97115669106757 -30.3580547147061 0.119984691000898 58.4336255690536 
! Gamma         14.560032833593  342.265799305595 14.5186374104634 341.818810408876 
! Port Impedance         50               0                50               0                
8                              0.134531778231522 54.7696563182646 0.96730583287944 -34.6375705585688 0.967305832879441 -34.6375705585689 0.134475920382769 54.6864217514882 
! Gamma         15.9376499313465 391.012588032286 15.8948061543332 390.500496567296 
! Port Impedance         50               0                50               0                
9                              0.148143727156884 50.9403840651245 0.96329379487744 -38.8983371621911 0.963293794877439 -38.898337162191 0.148076037834751 50.8460882353968 
! Gamma         17.3353452851081 439.742873385425 17.2907814503094 439.165680530228 
! Port Impedance         50               0                50               0                
10                             0.160796362472026 47.0574139930957 0.959172481935292 -43.1393733262512 0.959172481935293 -43.1393733262512 0.160715767064024 46.9514502866786 
! Gamma         18.75109179891   488.453330273452 18.7046232166341 487.811071906482 
! Port Impedance         50               0                50               0                
11                             0.172433069996308 43.1457004890256 0.954993623615499 -47.3602302519831 0.9549936236155  -47.3602302519831 0.172338472655409 43.0273926421344 
! Gamma         20.1823614130676 537.141948385396 20.1338642397532 536.434672828334 
! Port Impedance         50               0                50               0                
12                             0.183008409117748 39.2217902483811 0.950807264914367 -51.5609489821083 0.950807264914367 -51.5609489821083 0.182898698815267 39.0903779553886 
! Gamma         21.6264532022321 585.807667567407 21.5758475763433 585.035424520395 
! Port Impedance         50               0                50               0                
13                             0.192486846130267 35.296872950308  0.946660586381866 -55.7420155337056 0.946660586381866 -55.7420155337056 0.192360899659676 35.1514975478738 
! Gamma         23.0806788524502 634.450140755176 23.0279176563709 633.612975479155 
! Port Impedance         50               0                50               0                
14                             0.200841581096626 31.3785790793346 0.942597001605197 -59.9043130727143 0.942597001605198 -59.9043130727143 0.200698263191885 31.2182684671619 
! Gamma         24.542473267796  683.069565688798 24.4875343024651 682.167515809274 
! Port Impedance         50               0                50               0                
15                             0.208053449304843 27.4721021000357 0.938655494848072 -64.0490719709525 0.938655494848074 -64.0490719709525 0.207891609954093 27.2957540907051 
! Gamma         26.0094608426689 731.666556872641 25.9523411779636 730.699650503723 
! Port Impedance         50               0                50               0                
16                             0.214109907212276 23.5809374253245 0.934870164329496 -68.1778189576321 0.934870164329496 -68.1778189576321 0.213928376203454 23.3873008198821 
! Gamma         27.4794931117094 780.24204352325  27.4202047879951 779.210298200639 
! Port Impedance         50               0                50               0                
17                             0.219004119804546 19.7073947273634 0.931269937333773 -72.2923265289662 0.931269937333773 -72.2923265289662 0.218801698487124 19.4950473621744 
! Gamma         28.9506666319882 828.797186248951 28.8892333000281 827.700608332367 
! Port Impedance         50               0                50               0                
18                             0.222734165263467 15.8529717565625 0.927878424791946 -76.3945634933911 0.927878424791946 -76.3945634933911 0.222509615427911 15.6202946188573 
! Gamma         30.4213270411321 877.333308327735 30.3577812342864 876.171892772392 
! Port Impedance         50               0                50               0                
19                             0.225302367977868 12.0186418198363 0.924713885998386 -80.4866472604157 0.924713885998386 -80.4866472604157 0.225054397654792 11.7637881544658 
! Gamma         31.8900632903414 925.851839135994 31.8244441621209 924.625569451714 
! Port Impedance         50               0                50               0                
20                             0.226714765869139 8.20508755710803 0.921789278206661 -84.5707982110388 0.921789278206661 -84.5707982110387 0.226442011701855 7.92594563587825 
! Gamma         33.3556952027098 974.354268013463 33.2880466336175 973.063116442162 
! Port Impedance         50               0                50               0                
21                             0.226980713394474 4.41290295969062 0.919112370584272 -88.6492962798074 0.919112370584272 -88.6492962798074 0.22668171902651 4.10705073277881 
! Gamma         34.8172566719207 1022.84210714935 34.7476256724916 1021.48603500332 
! Port Impedance         50               0                50               0                
22                             0.226112617610353 0.642779713627068 0.916685906966661 -92.7244397540443 0.916685906966662 -92.7244397540443 0.225785807261827 0.307429097476799 
! Gamma         36.2739763415526 1071.31686234751 36.2024117075348 1069.8958203843  
! Port Impedance         50               0                50               0                
23                             0.224125802123513 -3.10430868120203 0.91450780650599 -96.7985061926228 0.91450780650599 -96.7985061926228 0.223769448139968 -3.47238092639025 
! Gamma         37.7252571120508 1119.78001052152 37.651808298505  1118.2939394814  
! Port Impedance         50               0                50               0                
24                             0.221038491296922 -6.82691217111885 0.912571395689013 -100.873715374131 0.912571395689013 -100.873715374131 0.220650673929579 -7.23145104329055 
! Gamma         39.1706555427796 1168.2329828806  39.0953717388387 1166.68181404673 
! Port Impedance         50               0                50               0                
25                             0.21687190600571 -10.5228845253973 0.910865668810039 -104.952194175368 0.910865668810039 -104.952194175368 0.216450462944216 -10.968266402344 
! Gamma         40.6098618312799 1216.67715301414 40.532791196853  1215.06080877667 
! Port Impedance         50               0                50               0                
26                             0.211650461152019 -14.1891210334774 0.909375577058022 -109.03594335954 0.909375577058022 -109.03594335954 0.211192923259722 -14.6804940005801 
! Gamma         42.0426809132307 1265.1138288356  41.9638699752121 1263.43222330838 
! Port Impedance         50               0                50               0                
27                             0.205402055277892 -17.8212292629738 0.908082348573682 -113.12680631785 0.908082348573683 -113.12680631785 0.204905563422464 -18.3646949289172 
! Gamma         43.4690149599086 1313.54424779158 43.388508139225  1311.79728739594 
! Port Impedance         50               0                50               0                
28                             0.198158443357329 -21.4130976965237 0.906963843336011 -117.2264399153  0.906963843336011 -117.2264399153  0.197619638893685 -22.0159498772634 
! Gamma         44.888847489395  1361.96957460344 44.8066867421163 1360.1571586676  
! Port Impedance         50               0                50               0                
29                             0.189955686581813 -24.956308838163 0.905994947357287 -121.336287693335 0.905994947357287 -121.336287693335 0.189370564449755 -25.6273514383794 
! Gamma         46.3022291115804 1410.39090100222 46.2184536807279 1408.51292229774 
! Port Impedance         50               0                50               0                
30                             0.180834678553985 -28.4393126751364 0.905148010483171 -125.457555790714 0.90514801048317 -125.457555790714 0.180198386307379 -29.1892897531695 
! Gamma         47.7092649352363 1458.8092469542  47.6239111724447 1456.86559223176 
! Port Impedance         50               0                50               0                
31                             0.170841758572226 -31.8462234067522 0.904393331048129 -129.591192038097 0.904393331048129 -129.591192038097 0.170148315486776 -32.6884111400773 
! Gamma         49.1101035497574 1507.22556302423 49.023204821269  1505.21611349034 
! Port Impedance         50               0                50               0                
32                             0.160029444263052 -35.155008306513 0.903699688787945 -133.737868765133 0.903699688787945 -133.737868765133 0.159271339376892 -36.1060452199788 
! Gamma         50.5049274938394 1555.64073350288 50.4165141375266 1553.56536527772 
! Port Impedance         50               0                50               0                
33                             0.148457357627441 -38.3346644120655 0.903034924787413 -137.897969913676 0.903034924787413 -137.897969913676 0.147624959141057 -39.4157394416789 
! Gamma         51.8939450856124 1604.05558006863 51.8040444174209 1601.91416459423 
! Port Impedance         50               0                50               0                
34                             0.136193501010955 -41.3406463706577 0.902366563988482 -142.071583062534 0.902366563988482 -142.071583062534 0.13527416206814 -42.5792351225829 
! Gamma         53.2773834863573 1652.47086578191 53.1860198481497 1650.2632701733  
! Port Impedance         50               0                50               0                
35                             0.123316208789685 -44.1071400487417 0.901662472069545 -146.25849695034 0.901662472069545 -146.25849695034 0.122292866152694 -45.5395943684744 
! Gamma         54.6554828696397 1700.88729918541 54.5626777039016 1698.61338657984 
! Port Impedance         50               0                50               0                
36                             0.109917467363542 -46.5333559454454 0.900891534580018 -150.458205004707 0.900891534580018 -150.458205004707 0.108766356675792 -48.208827483144 
! Gamma         56.0284915630803 1749.3055384844  55.9342635097041 1746.96516831275 
! Port Impedance         50               0                50               0                
37                             0.0961091461011365 -48.4578107050878 0.900024342414365 -154.669915262127 0.900024342414365 -154.669915262127 0.0947959045868961 -50.4441952536551 
! Gamma         57.3966620415191 1797.72619564065 57.3010270508802 1795.31922389747 
! Port Impedance         50               0                50               0                
38                             0.0820358188563656 -49.6068408449655 0.899033864347329 -158.892566884143 0.89903386434733 -158.892566884143 0.0805084985394114 -51.9993158306382 
! Gamma         58.7602476579214 1846.14984033495 58.6632191199305 1843.67611978842 
! Port Impedance         50               0                50               0                
39                             0.0679037507858498 -49.4837827460997 0.897896084864865 -163.124853254119 0.897896084864865 -163.124853254119 0.0660796821116603 -52.4138561282639 
! Gamma         60.1195000164523 1894.57700375392 60.0210888883365 1892.03638414223 
! Port Impedance         50               0                50               0                
40                             0.0540535643919503 -47.1130935237512 0.896590584202333 -167.365251387714 0.896590584202333 -167.365251387714 0.0517942545074092 -50.7375413520815 
! Gamma         61.4746668818674 1943.00818217962 61.3748818241723 1940.40051038194 
! Port Impedance         50               0                50               0                
41                             0.0411623517364159 -40.439877517117 0.895101037647679 -171.612057113273 0.895101037647679 -171.612057113273 0.0382334215189537 -44.7721235366274 
! Gamma         62.825990551759  1991.44384034104 62.7248380670214 1988.7689605074  
! Port Impedance         50               0                50               0                
42                             0.030817032305672 -25.3589630590374 0.893415612917965 -175.863425212269 0.893415612917965 -175.863425212269 0.0269263581949292 -29.1939402214277 
! Gamma         64.1737066208837 2039.88441454362 64.0711911843022 2037.14216822163 
! Port Impedance         50               0                50               0                
43                             0.0264122966930408 1.28947053489249 0.891527247777115 179.882586539429 0.891527247777116 179.882586539429 0.02195543318377 2.53630652381351 
! Gamma         65.5180430658428 2088.33031554754 65.4141672601592 2085.52054177653 
! Port Impedance         50               0                50               0                
44                             0.0305984621025279 28.0079208200134 0.889433794852004 175.627970694885 0.889433794852003 175.627970694885 0.0270352724022708 33.8927274536568 
! Gamma         66.8592196018319 2136.78193123306 66.7539842423016 2133.90446662671 
! Port Impedance         50               0                50               0                
45                             0.0406488004168329 43.1840525501562 0.887138026508091 171.374722232751 0.887138026508091 171.374722232751 0.0381861778893274 49.1134519902483 
! Gamma         68.1974472656535 2185.23962903105 68.0908515215878 2182.29430784767 
! Port Impedance         50               0                50               0                
46                             0.0531169925648485 49.9246642461668 0.884647499202981 167.1247909071   0.884647499202982 167.1247909071   0.0513749725180867 54.9364713391798 
! Gamma         69.5329281724448 2233.70375816087 69.4249696850146 2230.69041234807 
! Port Impedance         50               0                50               0                
47                             0.0663997526700587 52.3509352750318 0.881974283411466 162.880035329027 0.881974283411465 162.880035329027 0.0651136257285958 56.5700134954653 
! Gamma         70.8658554305943 2282.17465163014 70.7565304206484 2279.09311087389 
! Port Impedance         50               0                50               0                
48                             0.0798192757337553 52.5294227808595 0.879134571469445 158.642180160595 0.879134571469446 158.642180160595 0.0788384406615165 56.1600294439556 
! Gamma         72.1964131699226 2330.6526280845  72.0857165393313 2327.5027198461  
! Port Impedance         50               0                50               0                
49                             0.0930400339558054 51.4410611169937 0.876148180996877 154.412777655304 0.876148180996877 154.412777655304 0.0922760424622234 54.6371494304461 
! Gamma         73.5247766622743 2379.13799347264 73.4127020934031 2375.91954299807 
! Port Impedance         50               0                50               0                
50                             0.105863690701308 49.5851659663998 0.873037975545775 150.193174551606 0.873037975545776 150.193174551606 0.105261393837815 52.4537698388473 
! Gamma         74.8511125217121 2427.63104253918 74.737652562765  2424.34387289138 
! Port Impedance         50               0                50               0                
51                             0.118155460486559 47.2369412168194 0.869829226525671 145.984485076555 0.86982922652567 145.984485076555 0.117678511524772 49.8528692272254 
! Gamma         76.1755789533953 2476.13206019209 76.0607251059248 2472.77599225246 
! Port Impedance         50               0                50               0                
52                             0.12981471776968 44.5589603687003 0.866548941220507 141.787570534623 0.866548941220506 141.787570534623 0.129438027911718 46.9757672410808 
! Gamma         77.4983260517038 2524.64132270784 77.382068844622  2521.21617518499 
! Port Impedance         50               0                50               0                
53                             0.140761956496889 41.6529370434999 0.863225180908312 137.603025685171 0.863225180908313 137.603025685171 0.140467547454996 43.9100195557765 
! Gamma         78.8194961231923 2573.15909884118 78.7018251834223 2569.66468828031 
! Port Impedance         50               0                50               0                
54                             0.150932413650489 38.5855779815328 0.859886390979986 133.431171854651 0.859886390979986 133.431171854651 0.15070701395665 40.7126893673769 
! Gamma         80.1392240307474 2621.68565081333 80.0201281520402 2618.12179158488 
! Port Impedance         50               0                50               0                
55                             0.160272641842893 35.4023613565575 0.856560761834915 129.272056510349 0.856560761834915 129.272056510349 0.160106227848285 37.4225265142348 
! Gamma         81.4576375543956 2670.22123519181 81.3371047524045 2666.58773949489 
! Port Impedance         50               0                50               0                
56                             0.16873847641788 32.135307309601  0.853275635605894 125.125458841655 0.853275635605894 125.125458841655 0.168623351390732 34.0667508910707 
! Gamma         82.7748577512386 2718.76610369234 82.6528753219746 2715.06278154585 
! Port Impedance         50               0                50               0                
57                             0.176293700268616 28.8075820103605 0.850056969781449 120.990900770813 0.850056969781448 120.990900770813 0.176223894036595 30.6650372968368 
! Gamma         84.0909993226046 2767.32050388955 83.9675538902273 2763.54716313055 
! Port Impedance         50               0                50               0                
58                             0.182909078412384 25.4363479554093 0.846928864916922 116.867662729123 0.846928864916921 116.867662729123 0.182879945760695 27.2319688009011 
! Gamma         85.4061709737635 2815.88467986745 85.2812485378142 2812.04112613217 
! Port Impedance         50               0                50               0                
59                             0.188561603857664 22.0346009939312 0.843913160091777 112.754803499484 0.843913160091776 112.754803499484 0.188569550729384 23.7786136719285 
! Gamma         86.7204757704527 2864.45887277889 86.5940617463289 2860.54490950948 
! Port Impedance         50               0                50               0                
60                             0.193233878089915 18.6124007469268 0.841029096800863 108.651183431522 0.841029096800863 108.651183431522 0.193276172835495 20.3135819526422 
! Gamma         88.0340114837546 2913.04332137905 87.9060907416678 2909.05874980014 
! Port Impedance         50               0                50               0                
61                             0.196913590355505 15.1777273127677 0.838293049656156 104.555490357065 0.838293049656155 104.555490357065 0.196988233545777 16.8437640837959 
! Gamma         89.3468709271108 2961.63826248046 89.2174278260234 2957.58288159591 
! Port Impedance         50               0                50               0                
62                             0.199593080512044 11.7371029632635 0.835718320660154 100.466267592214 0.835718320660154 100.466267592214 0.199698716577459 13.3748715583821 
! Gamma         90.6591422806841 3010.24393136997 90.5281606983556 3006.11753795307 
! Port Impedance         50               0                50               0                
63                             0.201268980367434 8.29606475982667 0.833314992880637 96.3819434678973 0.833314992880636 96.3819434678973 0.201404840386527 9.91185382063002 
! Gamma         91.9709094001164 3058.8605621902  91.8383727630549 3054.66295077381 
! Port Impedance         50               0                50               0                
64                             0.201941933057135 4.85954373404111 0.831089839031684 92.3008618986156 0.831089839031684 92.3008618986157 0.202107801951855 6.45923966799095 
! Gamma         93.2822521167062 3107.48838827117 93.1481434245123 3103.21935113999 
! Port Impedance         50               0                50               0                
65                             0.201616391751335 1.43218880279031 0.829046280637277 88.2213135573649 0.829046280637277 88.2213135573648 0.201812595839578 3.02143663196738 
! Gamma         94.5932465206726 3156.12764244576 94.4575483695954 3151.78696962348 
! Port Impedance         50               0                50               0                
66                             0.200300499096288 -1.98133622372256 0.827184394035974 84.1415672758027 0.827184394035974 84.1415672758027 0.200527911933153 -0.396986186804161 
! Gamma         95.9039652312491 3204.77855731085 95.7666598343664 3200.36603655785 
! Port Impedance         50               0                50               0                
67                             0.198006048377848 -5.37605895555402 0.825500960293833 80.059901328394  0.825500960293833 80.059901328394  0.198266114443267 -3.7910098992415 
! Gamma         97.2144776530709 3253.44136550198 97.0755468608027 3248.95678230134 
! Port Impedance         50               0                50               0                
68                             0.194748526709215 -8.74638550732607 0.823989557063425 75.9746342790932 0.823989557063425 75.9746342790932 0.195043304008185 -7.15485037921677 
! Gamma         98.5248502206162 3302.11629990007 98.3842755351755 3297.55943745568 
! Port Impedance         50               0                50               0                
69                             0.190547240311849 -12.0857434155845 0.822640691371604 71.884155078212  0.822640691371604 71.884155078212  0.190879464588007 -10.4815905676163 
! Gamma         99.8351466269818 3350.80359385317 99.692909219821  3346.17423308259 
! Port Impedance         50               0                50               0                
70                             0.185425522437245 -15.3861491976718 0.821441973172478 67.7869520849919 0.821441973172478 67.7869520849919 0.185798697673153 -13.7627285038744 
! Gamma         101.145428041769 3399.50348136712 101.001508765991 3394.80140089234 
! Port Impedance         50               0                50               0                
71                             0.179411026501939 -18.6376578672944 0.820378330118459 63.6816406710741 0.820378330118459 63.6816406710741 0.179829549008835 -16.9875967736932 
! Gamma         102.455753316649 3448.21619727842 102.310132719716 3443.4411734259  
! Port Impedance         50               0                50               0                
72                             0.172536111570785 -21.8276323050096 0.819432264303257 59.5669890266465 0.819432264303257 59.5669890266466 0.173005438696617 -20.1425887069278 
! Gamma         103.766179177933 3496.94197742466 103.618837513444 3492.09378421811 
! Port Impedance         50               0                50               0                
73                             0.164838336233058 -24.9397380241328 0.818584151647198 55.4419417529201 0.818584151647198 55.4419417529201 0.165365216190601 -23.2100933323395 
! Gamma         105.076760409762 3545.68105879649 104.927677647176 3540.75946795252 
! Port Impedance         50               0                50               0                
74                             0.156361093512452 -27.9525146394871 0.817812584050316 51.3056407880952 0.817812584050317 51.3056407880952 0.156953881140997 -26.166985880645 
! Gamma         106.387550025004 3594.43367967614 106.236705858459 3589.43846060758 
! Port Impedance         50               0                50               0                
75                             0.147154449702789 -30.8372825092182 0.817094753427448 47.1574431820776 0.817094753427448 47.1574431820776 0.147823545866624 -28.982427615071 
! Gamma         107.698599427441 3643.20007978286 107.545973284638 3638.13099958875 
! Port Impedance         50               0                50               0                
76                             0.13727630565617 -33.5549801574733 0.816406875252738 42.9969352191445 0.816406875252737 42.9969352191445 0.138034778319474 -31.6145684496526 
! Gamma         109.009958564133 3691.98050039178 108.855529612797 3686.8373238651  
! Port Impedance         50               0                50               0                
77                             0.126794103302835 -36.0512339119441 0.81572464735139 38.8239423885261 0.81572464735139 38.8239423885261 0.127658580693907 -34.0054629943366 
! Gamma         110.321676067164 3740.77518446742 110.165423223052 3735.55767408941 
! Port Impedance         50               0                50               0                
78                             0.115787502096636 -38.2484137333708 0.815023737442286 34.6385347376582 0.815023737442286 34.6385347376582 0.116779479721554 -36.07300040974  
! Gamma         111.633799390361 3789.5843767809  111.475701322909 3784.29229271988 
! Port Impedance         50               0                50               0                
79                             0.104352856242208 -40.0323806207951 0.814280290550849 30.4410271965301 0.814280290550849 30.4410271965301 0.105500637794442 -37.6977134503653 
! Gamma         112.946374935761 3838.40832401834 112.786410073656 3833.04142413237 
! Port Impedance         50               0                50               0                
80                             0.0926111779283054 -41.2295806730037 0.81347144501086 26.2319745663966 0.81347144501086 26.2319745663965 0.0939527736563027 -38.7006226904323 
! Gamma         114.259448172416 3887.24727490576 114.097594708614 3881.80531474962 
! Port Impedance         50               0                50               0                
81                             0.0807231489146318 -41.5661484243881 0.812575843614615 22.0121609905285 0.812575843614614 22.0121609905285 0.0823105175424327 -38.8053111508338 
! Gamma         115.573063750844 3936.10148031286 115.409299648138 3930.58421313524 
! Port Impedance         50               0                50               0                
82                             0.0689190010866178 -40.5935413668697 0.81157412477147 17.7825838901667 0.81157412477147 17.7825838901667 0.0708236687054208 -37.5734147620046 
! Gamma         116.887265608417 3984.97119336951 116.721568602907 3979.37837011755 
! Port Impedance         50               0                50               0                
83                             0.057560607327763 -37.5574742040939 0.810449377522868 13.5444325391577 0.810449377522867 13.5444325391577 0.0598782415890002 -34.3039561689382 
! Gamma         118.202097071103 4033.85666957234 118.034444677954 4028.18803889663 
! Port Impedance         50               0                50               0                