! Touchstone file exported from HFSS 2024.2.0
!        File:           C:/Users/vaintrug/Documents/Ansoft_Workspace/Comparaison_Calculs_HFSS/1_VarPort.aedt
!        Generated:      03:22:16 PM Jan 21, 2025
!        Design:         1_NoDeembed_FacePortFree
!        Project:        1_VarPort
!        Setup:          Setup1
!        Solution:       Sweep
!
! Variables:
!        $Lenght = 1500um
!        $PortSize = 150um
!        Gap = 30um
!        Th = 2um
!        X_centralStrip = 20um
!        X_masse = 200um
!        Y_Sub = 1.5mm
!        Z_Box = 400um
!        Z_Sub = 200um
!
# GHz S MA R 50.000000
! Terminal data exported
! Port[1] = 1
! Port[2] = 2
1                              0.0203146703029575 62.1553939550985 0.989114939577088 -4.42382985820026 0.989114939577089 -4.42382985820026 0.0203125291813664 62.1778394366016 
! Gamma         5.99850148350654 50.2071364121034 6.02762971583479 50.2738333983466 
! Port Impedance         50               0                50               0                
2                              0.036207596841579 69.4114295715036 0.986640104765017 -8.7508215651294 0.986640104765016 -8.75082156512941 0.0362085188540306 69.4575103543459 
! Gamma         7.90436667306894 98.8818803958564 8.03621763222073 99.0186602625524 
! Port Impedance         50               0                50               0                
3                              0.0524897834080362 69.873112113111  0.984197775275933 -13.0821659025092 0.984197775275933 -13.0821659025092 0.0524960139425757 69.938318990425  
! Gamma         9.3849911389888  147.559058793908 9.61291791974997 147.669487357583 
! Port Impedance         50               0                50               0                
4                              0.0686530315003958 68.0775509942535 0.981507867767708 -17.4117662556073 0.981507867767709 -17.4117662556073 0.0686657283929326 68.161796988954  
! Gamma         10.7505609239873 196.308764115016 11.0383414472499 196.369649789207 
! Port Impedance         50               0                50               0                
5                              0.0844376116516035 65.2953128702346 0.978530958354397 -21.7342263630849 0.978530958354396 -21.7342263630849 0.0844579832073976 65.3990477270881 
! Gamma         12.0955200586029 245.09748981014  12.4236234230358 245.107493466396 
! Port Impedance         50               0                50               0                
6                              0.0996794580647845 62.0097066591287 0.975281279914158 -26.0457967625963 0.975281279914158 -26.0457967625963 0.0997087843512779 62.1334277175716 
! Gamma         13.449557196537  293.900050799435 13.8087558511683 293.861487854896 
! Port Impedance         50               0                50               0                
7                              0.114256691453166 58.4424071401246 0.971791636674791 -30.3437144815868 0.971791636674792 -30.3437144815867 0.114296284779618 58.5866270009777 
! Gamma         14.8223594652649 342.701147994663 15.20847565362   342.616174167408 
! Port Impedance         50               0                50               0                
8                              0.128071544100789 54.7090264749313 0.96810341378692 -34.6259231690509 0.968103413786921 -34.6259231690509 0.128122722846   54.874290615747  
! Gamma         16.2163612581235 391.491337467432 16.6277125364654 391.361318296845 
! Port Impedance         50               0                50               0                
9                              0.141043330385221 50.8756726101258 0.964262306880122 -38.8909571118491 0.964262306880121 -38.8909571118491 0.141107403725868 51.0625783147907 
! Gamma         17.630985889157  440.264612409119 18.0671570849299 440.090160706293 
! Port Impedance         50               0                50               0                
10                             0.153105177641121 46.9827635499978 0.960315793699865 -43.1378822514848 0.960315793699866 -43.1378822514848 0.153183436817783 47.1919759022517 
! Gamma         19.0643010216948 489.01712658169  19.5255236804    488.798254128285 
! Port Impedance         50               0                50               0                
11                             0.164202129154728 43.0562303451047 0.956311323320131 -47.3662543641317 0.95631132332013 -47.3662543641317 0.164295842936338 43.288496489911  
! Gamma         20.513765131458  537.746496101083 21.0005866330018 537.48275835353  
! Port Impedance         50               0                50               0                
12                             0.174289767328266 39.1132710701197 0.952294915529346 -51.5760800048166 0.952294915529347 -51.5760800048166 0.174400180563616 39.369434098862  
! Gamma         21.976608179646  586.451386869756 22.4897074599836 586.1420002211   
! Port Impedance         50               0                50               0                
13                             0.1833330443606  35.1655289807135 0.948310062750361 -55.7677755828625 0.948310062750361 -55.7677755828625 0.183461379110596 35.4465424803349 
! Gamma         23.450044857833  635.131248402309 23.9901267250094 634.775181265505 
! Port Impedance         50               0                50               0                
14                             0.191305213068392 31.2209615088365 0.944396884845756 -59.9421237996593 0.944396884845757 -59.9421237996592 0.191452672132093 31.5279056361311 
! Gamma         24.9314008672289 683.786126551063 25.4991348180607 683.382169899083 
! Port Impedance         50               0                50               0                
15                             0.198186831595941 27.2850028142406 0.940591502701657 -64.1002281055156 0.940591502701657 -64.1002281055156 0.198354604404959 27.6191025939343 
! Gamma         26.4181886131068 732.416522551562 27.014173980559  731.963344732881 
! Port Impedance         50               0                50               0                
16                             0.203964846065646 23.3613253610822 0.936925599825184 -68.2434662448136 0.936925599825185 -68.2434662448136 0.204154117037741 23.7239719513484 
! Gamma         27.9081506114012 781.02328159161  28.5328979027294 780.519471393865 
! Port Impedance         50               0                50               0                
17                             0.208631764260131 19.4523640405031 0.933426142021575 -72.3734439174978 0.933426142021575 -72.3734439174978 0.208843723792645 19.8451397886518 
! Gamma         29.399280941229  829.607502421506 30.0532034360866 829.051602965847 
! Port Impedance         50               0                50               0                
18                             0.212184933350112 15.5596947900466 0.930115226594331 -76.4919493672022 0.93011522659433 -76.4919493672022 0.212420791732488 15.9844030715337 
! Gamma         30.8898313722505 878.170463107383 31.5732432989962 877.560998692938 
! Port Impedance         50               0                50               0                
19                             0.214625931103989 11.6843219796985 0.92701003508011 -80.6009094643224 0.927010035080112 -80.6009094643224 0.214886935740504 12.143023012432  
! Gamma         32.3783067063327 926.713560044502 33.0914256877995 926.049057206967 
! Port Impedance         50               0                50               0                
20                             0.215960075705856 7.82690826033516 0.924122867052172 -84.7023476117803 0.924122867052171 -84.7023476117803 0.21624753220651 8.32196248331439 
! Gamma         33.8634527251977 975.238258232948 34.6064049345044 974.517262330588 
! Port Impedance         50               0                50               0                
21                             0.216196055148699 3.98796922504219 0.921461236636771 -88.7983436265487 0.921461236636769 -88.7983436265487 0.216511353048792 4.52209023292709 
! Gamma         35.3442393043092 1023.7460513027  36.1170662829652 1022.96713926901 
! Port Impedance         50               0                50               0                
22                             0.215345673733832 0.168048913911588 0.919028017641735 -92.8909956260528 0.919028017641736 -92.8909956260529 0.215690317905399 0.744368624385998 
! Gamma         36.8198406494611 1072.23842992189 37.6225070723066 1071.40021998754 
! Port Impedance         50               0                50               0                
23                             0.213423710467709 -3.63211089322851 0.916821627301044 -96.9823838775804 0.916821627301045 -96.9823838775804 0.213799359677049 -3.00996134246489 
! Gamma         38.2896141682924 1120.71685745207 39.1220160341266 1119.81801628484 
! Port Impedance         50               0                50               0                
24                             0.210447882086167 -7.41139571332789 0.914836242347624 -101.07453655075 0.914836242347624 -101.07453655075 0.21085639673991 -6.73918453749387 
! Gamma         39.7530790821705 1169.18275169615 40.6150519632135 1168.22199942752 
! Port Impedance         50               0                50               0                
25                             0.206438902013178 -11.1681249230441 0.913062044292996 -105.169397319131 0.913062044292996 -105.169397319131 0.206882403920095 -10.4408912847026 
! Gamma         41.2098955614151 1217.63747185746 42.1012226718362 1216.61358536811 
! Port Impedance         50               0                50               0                
26                             0.201420625340818 -14.8998243731651 0.911485493402425 -109.268794822904 0.911485493402424 -109.268794822904 0.201901573504663 -14.111713980005 
! Gamma         42.6598449617213 1266.08230961469 43.5802648551443 1264.99412439551 
! Port Impedance         50               0                50               0                
27                             0.195420269693229 -18.6029441626184 0.910089632697819 -113.374414045987 0.91008963269782 -113.374414045987 0.195941557866267 -17.7469962455384 
! Gamma         44.1028114808566 1314.51848377288 45.0520252754739 1313.36489460566 
! Port Impedance         50               0                50               0                
28                             0.188468701868879 -22.2724915029149 0.908854424575757 -117.487769765056 0.908854424575758 -117.487769765056 0.189033786184542 -21.3403591699356 
! Gamma         45.5387654549198 1362.9471375608  46.516443504828  1361.72709829986 
! Port Impedance         50               0                50               0                
29                             0.180600781660581 -25.9015330810612 0.907757123106446 -121.610182303741 0.907757123106446 -121.610182303741 0.181213850656449 -24.8831108935816 
! Gamma         46.9677483688656 1411.36933812064 47.9735363545364 1410.08186067952 
! Port Impedance         50               0                50               0                
30                             0.171855757839257 -29.4804949541172 0.9067726848474  -125.742755909977 0.9067726848474  -125.742755909977 0.172521963480222 -28.3634150658152 
! Gamma         48.3898595823433 1459.78607757904 49.4233840008877 1458.43023039122 
! Port Impedance         50               0                50               0                
31                             0.162277718658054 -32.9961422025028 0.905874220080765 -129.886360156225 0.905874220080765 -129.886360156225 0.163003497162377 -31.765080855625 
! Gamma         49.8052446976438 1508.19827536996 50.8661177602404 1506.77318139712 
! Port Impedance         50               0                50               0                
32                             0.151916113715352 -36.4300386121649 0.905033484787821 -134.041614823136 0.905033484787821 -134.041614823136 0.152709642053711 -35.0657434853053 
! Gamma         51.2140854899227 1556.60678139111 52.3019094529172 1555.11161582075 
! Port Impedance         50               0                50               0                
33                             0.140826392627108 -39.7561341502404 0.904221411435765 -138.208878757993 0.904221411435765 -138.208878757994 0.141698255979568 -38.234032418919 
! Gamma         52.6165912692691 1605.01237973715 53.7309622223244 1603.44636743885 
! Port Impedance         50               0                50               0                
34                             0.129070862559598 -42.9368318500697 0.903408673963975 -142.388243216609 0.903408673963974 -142.388243216609 0.130035060751004 -41.2249956754358 
! Gamma         54.0129915307459 1653.41579279722 55.1535026777561 1651.77820568936 
! Port Impedance         50               0                50               0                
35                             0.116719984423811 -45.9162796987688 0.902566279288393 -146.579530155399 0.902566279288391 -146.579530155399 0.117795503673355 -43.9723905615117 
! Gamma         55.4035297811801 1701.81768551552 56.5697742531021 1700.10783981729 
! Port Impedance         50               0                50               0                
36                             0.103854585805495 -48.6083168967315 0.901666174487422 -150.782295883924 0.901666174487422 -150.782295883924 0.10506795370207 -46.3750613358588 
! Gamma         56.7884583761785 1750.21866969862 57.9800316234036 1748.43592320063 
! Port Impedance         50               0                50               0                
37                             0.0905700798597549 -50.8734373983632 0.900681855773733 -154.995840362908 0.900681855773732 -154.995840362908 0.0919597117730651 -48.2715124519655 
! Gamma         58.1680342681298 1798.6193082983  59.3845360591638 1796.76305762341 
! Port Impedance         50               0                50               0                
38                             0.0769853626105968 -52.4713840599559 0.89958896274411 -159.21922229517 0.89958896274411 -159.21922229517 0.0786093333290483 -49.3893682665245 
! Gamma         59.5425155332457 1847.02011949859 60.7835516134745 1845.08979745514 
! Port Impedance         50               0                50               0                
39                             0.0632636433134108 -52.954507117437 0.89836583947585 -163.451279954767 0.89836583947585 -163.451279954767 0.0652142658255229 -49.2376840806188 
! Gamma         60.9121585684359 1895.42158069351 62.1773420034073 1893.41665370971 
! Port Impedance         50               0                50               0                
40                             0.0496675883384596 -51.4016748541058 0.896994043100494 -167.69065750045 0.896994043100496 -167.69065750045 0.0520992712059724 -46.8620363394679 
! Gamma         62.2772158623014 1943.82413221942 63.566168119467  1941.74409784858 
! Port Impedance         50               0                50               0                
41                             0.036728622536788 -45.6872068254402 0.89545878072292 -171.935836284576 0.895458780722921 -171.935836284576 0.0399031463367791 -40.2836382367792 
! Gamma         63.6379342608561 1992.22818083606 64.9502860446344 1990.07256541799 
! Port Impedance         50               0                50               0                
42                             0.0258375493878589 -30.6283618341411 0.893749257086658 -176.185170450531 0.893749257086657 -176.185170450531 0.0300938385549459 -25.6342907636492 
! Gamma         64.9945536355114 2040.63410300906 66.3299455188998 2038.40245943259 
! Port Impedance         50               0                50               0                
43                             0.0207716254064961 0.672821728356153 0.89185891820772 179.56307409657  0.89185891820772 179.56307409657  0.0257552880762693 0.0834777420100133 
! Gamma         66.3473059045637 2089.04224790618 67.7053887797326 2086.73415350462 
! Port Impedance         50               0                50               0                
44                             0.025281485732796 32.6659764291177 0.889785580166434 175.310678430079 0.889785580166434 175.310678430079 0.0293922516984442 26.4194076339703 
! Gamma         67.696414335762  2137.45294017416 69.0768497119356 2135.06799474742 
! Port Impedance         50               0                50               0                
45                             0.0357624872099667 48.4118012450719 0.887531437114898 171.059428254851 0.887531437114897 171.059428254851 0.038674069070169 41.8673006093098 
! Gamma         69.0420930899691 2185.86648246487 70.4445532559899 2183.40430644486 
! Port Impedance         50               0                50               0                
46                             0.0482632699476623 54.4522778594978 0.885102947942532 166.811071739593 0.885102947942532 166.811071739593 0.0503704872408512 48.9021363317854 
! Gamma         70.3845469498322 2234.2831577736  71.8087150339284 2231.74339050029 
! Port Impedance         50               0                50               0                
47                             0.0613160957352331 56.1803892383353 0.882510606538626 162.56727878792  0.882510606538626 162.56727878792  0.0629109862884872 51.5323447584584 
! Gamma         71.7239712175119 2282.70323150642 73.1695411492474 2280.08552964312 
! Port Impedance         50               0                50               0                
48                             0.0743712454479351 55.8167846417045 0.879768605750649 158.32960293695  0.879768605750649 158.32960293695  0.0756220706736202 51.8473135637642 
! Gamma         73.0605517304842 2331.12695341436 74.5272281227521 2328.43098947056 
! Port Impedance         50               0                50               0                
49                             0.0871650509125077 54.318776566694  0.876894409562132 154.099446949378 0.876894409562132 154.099446949378 0.0881707117462161 50.8524511651996 
! Gamma         74.3944649798377 2379.55455929687 75.881962955599  2376.78002027069 
! Port Impedance         50               0                50               0                
50                             0.0995394848591745 52.149339982199  0.873908251397753 149.878032977969 0.873908251397754 149.878032977969 0.100361328685514 49.0622391466602 
! Gamma         75.7258783051488 2427.98627256605 77.2339232695045 2425.13285868888 
! Port Impedance         50               0                50               0                
51                             0.111383842289581 49.5561478443063 0.870832578592507 145.666377985039 0.870832578592506 145.666377985039 0.112061890922799 46.7608244033025 
! Gamma         77.0549501539841 2476.42230563212 78.5832775235827 2473.48972922866 
! Port Impedance         50               0                50               0                
52                             0.122612811283474 46.6828189663634 0.867691463881501 141.465274858597 0.867691463881502 141.465274858597 0.123174263421119 44.1161806279595 
! Gamma         78.3818303774883 2524.86286115729 79.9301852857122 2521.85084558103 
! Port Impedance         50               0                50               0                
53                             0.133157109008943 43.6181419963275 0.864510004322596 137.27527944636  0.864510004322596 137.27527944636  0.13362103209384 41.2334138639404 
! Gamma         79.7066605686589 2573.30813318719 81.2747975414303 2570.21641186674 
! Port Impedance         50               0                50               0                
54                             0.142959021645813 40.4199064489983 0.861313726536582 133.096703507724 0.861313726536581 133.096703507724 0.143339078245906 38.181453952727  
! Gamma         81.0295744116309 2621.75830815186 82.6172570308314 2618.58662369626 
! Port Impedance         50               0                50               0                
55                             0.151970045256836 37.1273378739625 0.858128014760204 128.929613396771 0.858128014760205 128.929613396771 0.152276151623728 35.0072982621876 
! Gamma         82.3506980538695 2670.21356575183 83.9576986056933 2666.96166916026 
! Port Impedance         50               0                50               0                
56                             0.160149491701796 33.7680065764464 0.854977575282858 124.773834129627 0.854977575282858 124.773834129627 0.160388866881106 31.7440485996391 
! Gamma         83.6701504769135 2718.67407977177 85.2962495993195 2715.34172969773 
! Port Impedance         50               0                50               0                
57                             0.167463563167151 30.3618770871251 0.851885947622959 120.628958371524 0.85188594762296 120.628958371524 0.167641414371224 28.4156726130175 
! Gamma         84.9880438725554 2767.14001879477 86.6330301974486 2763.72698087226 
! Port Impedance         50               0                50               0                
58                             0.173884667343863 26.9237961714023 0.848875069609253 116.494359800121 0.848875069609253 116.494359800121 0.174004649266498 25.0399496135399 
! Gamma         86.3044840162686 2815.61154682372 87.968153811452  2812.11759307147 
! Port Impedance         50               0                50               0                
59                             0.179390866529698 23.465088831752  0.845964900566875 112.369210255357 0.845964900566875 112.369210255357 0.179455394802681 21.6303668214931 
! Gamma         87.6195706285075 2864.08882385524 89.3017274483023 2860.5137321221  
! Port Impedance         50               0                50               0                
60                             0.183965411660502 19.9946255390662 0.843173104244224 108.252500077784 0.843173104244224 108.252500077784 0.183975878705772 18.1973869582109 
! Gamma         88.9333977347903 2912.57200636857 90.633852073463  2908.91555983773 
! Port Impedance         50               0                50               0                
61                             0.187596340663804 16.5195668756317 0.840514791058602 104.143061050288 0.840514791058601 104.143061050288 0.187553263734977 14.7493282716904 
! Gamma         90.2460540060549 2961.06124778281 91.9646229589286 2957.32323452042 
! Port Impedance         50               0                50               0                
62                             0.190276134578824 13.0459076312364 0.838002317733072 100.039591388255 0.838002317733072 100.039591388255 0.190179254659101 11.2930005538839 
! Gamma         91.5576230927905 3009.55669883336 93.2941300293319 3005.73691137986 
! Port Impedance         50               0                50               0                
63                             0.192001431547811 9.57889578125751 0.835645141438624 95.9406822709609 0.835645141438624 95.9406822709609 0.19184977481014 7.83418597945807 
! Gamma         92.8681839420281 3058.0585079284  94.622458186946  3054.15674292657 
! Port Impedance         50               0                50               0                
64                             0.192772801596357 6.12337531853037 0.833449725103617 91.8448454523686 0.833449725103618 91.8448454523686 0.192564710534163 4.37802216681034 
! Gamma         94.1778111005959 3106.5668214416  95.9496876274626 3102.58287931092 
! Port Impedance         50               0                50               0                
65                             0.192594585899897 2.68408688320216 0.831419490530003 87.7505415359321 0.831419490530002 87.7505415359321 0.19232772399749 0.929326627896634 
! Gamma         95.4865750039552 3155.08178399493 97.2758941395147 3151.01546862703 
! Port Impedance         50               0                50               0                
66                             0.191474804071063 -0.734048032980146 0.829554816258509 83.6562085425989 0.82955481625851 83.6562085425989 0.191146135390208 -2.50710852797452 
! Gamma         96.7945422504169 3203.60353868384 98.6011493913089 3199.45465716886 
! Port Impedance         50               0                50               0                
67                             0.189425132416819 -4.12563718088991 0.827853077680013 79.5602904285429 0.827853077680014 79.5602904285429 0.189030875283163 -5.92622794663017 
! Gamma         98.1017758597163 3252.13222728452 99.9255212038696 3247.9005896724  
! Port Impedance         50               0                50               0                
68                             0.1864609557317  -7.48449998695604 0.826308727550339 75.4612652307698 0.826308727550339 75.4612652307698 0.185996507523036 -9.32240814655614 
! Gamma         99.4083355177595 3300.6679904434  101.249073804645 3296.3534095211  
! Port Impedance         50               0                50               0                
69                             0.182601495321569 -10.8032973123124 0.824913415753166 71.3576725289741 0.824913415753166 71.3576725289741 0.182061322839559 -12.6891121111656 
! Gamma         100.7142778071   3349.21096782753 102.571868071809 3344.81325892445 
! Port Impedance         50               0                50               0                
70                             0.177870017110135 -14.0730767006265 0.82365614776725 67.2481399032221 0.823656147767251 67.2481399032221 0.177247503840333 -16.0184733541507 
! Gamma         102.019656423321 3397.7612982647  103.893961763202 3393.28027907335 
! Port Impedance         50               0                50               0                
71                             0.172294126674686 -17.2826893567523 0.822523481722812 63.1314080564193 0.822523481722813 63.1314080564193 0.17158136389636 -19.30076872423  
! Gamma         103.324522378177 3446.31911986268 105.215409732201 3441.75461027706 
! Port Impedance         50               0                50               0                
72                             0.165906163982759 -20.4180154816637 0.821499764115366 59.0063542486601 0.821499764115366 59.0063542486601 0.165093666497281 -22.5237209930933 
! Gamma         104.628924189968 3494.88457012072 106.536264126892 3490.23639209947 
! Port Impedance         50               0                50               0                
73                             0.158743721465591 -23.4609027215076 0.820567404120723 54.872013661993  0.820567404120723 54.872013661993  0.157820039562639 -25.6715419021718 
! Gamma         105.932908062659 3543.45778600899 107.856574583478 3538.72576344261 
! Port Impedance         50               0                50               0                
74                             0.150850328467874 -26.3876702846391 0.819707185954013 50.7275982937541 0.819707185954013 50.727598293754  0.14980151389912 -28.723575439723 
! Gamma         107.23651805042  3592.03890405261 109.176388400517 3587.22286264813 
! Port Impedance         50               0                50               0                
75                             0.142276379192023 -29.1669445034851 0.818898617862327 46.5725129553992 0.818898617862327 46.5725129553992 0.141085241575803 -31.6523140945805 
! Gamma         108.539796214727 3640.62806039985 110.495750706138 3635.7278275824  
! Port Impedance         50               0                50               0                
76                             0.133080442138151 -31.7564444717281 0.818120315097247 42.4063679475983 0.818120315097247 42.4063679475983 0.131725498773021 -34.4204083775916 
! Gamma         109.842782767964 3689.22539087436 111.814704614477 3684.24079569202 
! Port Impedance         50               0                50               0                
77                             0.12333119932458 -34.0980821214328 0.817350412669595 38.2289879926983 0.817350412669594 38.2289879926982 0.121785168662099 -36.9760147995083 
! Gamma         111.145516209089 3737.83103102865 113.133291366959 3732.76190407141 
! Port Impedance         50               0                50               0                
78                             0.113110469062678 -36.1102946238194 0.816567001886446 34.0404170361734 0.816567001886447 34.0404170361734 0.111338075573499 -39.245315605126 
! Gamma         112.448033449584 3786.44511618523 114.451550470996 3781.29128950688 
! Port Impedance         50               0                50               0                
79                             0.102518159720734 -37.6757383723854 0.815748582757541 29.8409185863945 0.81574858275754 29.8409185863946 0.100472894244705 -41.1200617246925 
! Gamma         113.750369929453 3835.06778146742 115.769519821995 3829.82908852797 
! Port Impedance         50               0                50               0                
80                             0.0916807774573722 -38.6211090142141 0.814874522461921 25.6309713464896 0.814874522461921 25.6309713464895 0.0893000983147664 -42.4360608624121 
! Gamma         115.052559724708 3883.69916183155 117.087235823129 3878.37543742975 
! Port Impedance         50               0                50               0                
81                             0.0807666646425771 -38.6837064188404 0.813925508370001 21.4112600031663 0.813925508370001 21.4112600031663 0.0779650401459606 -42.9347238161529 
! Gamma         116.354635649584 3932.33939209307 118.404733492315 3926.93047231884 
! Port Impedance         50               0                50               0                
82                             0.0700142076689349 -37.4571802671233 0.812883982798414 17.1826611738996 0.812883982798414 17.1826611738996 0.0666739696003256 -42.192695691304 
! Gamma         117.656629349156 3980.98860694197 119.722046563632 3975.49432913042 
! Port Impedance         50               0                50               0                
83                             0.0597845798316093 -34.313195150389 0.811734545906955 12.9462246709654 0.811734545906955 12.9462246709654 0.0557482822784504 -39.4952297215932 
! Gamma         118.958571386032 4029.64694096492 121.039207580566 4024.06714365052 
! Port Impedance         50               0                50               0                