! Touchstone file exported from HFSS 2024.2.0
!        File:           C:/Users/vaintrug/Documents/Ansoft_Workspace/Comparaison_Calculs_HFSS/1_VarPort.aedt
!        Generated:      03:22:19 PM Jan 21, 2025
!        Design:         1_NoDeembed_FacePortFree
!        Project:        1_VarPort
!        Setup:          Setup1
!        Solution:       Sweep
!
! Variables:
!        $Lenght = 2000um
!        $PortSize = 360um
!        Gap = 30um
!        Th = 2um
!        X_centralStrip = 20um
!        X_masse = 200um
!        Y_Sub = 2mm
!        Z_Box = 400um
!        Z_Sub = 200um
!
# GHz S MA R 50.000000
! Terminal data exported
! Port[1] = 1
! Port[2] = 2
1                              0.027542596514512 61.1637489760216 0.985431341866235 -5.89758316810791 0.985431341866235 -5.89758316810791 0.0275519179526603 61.1297902369675 
! Gamma         5.89306823433577 49.788990499061  5.95034083477599 49.8323708745218 
! Port Impedance         50               0                50               0                
2                              0.0490500893635471 66.7683220252806 0.98189250618944 -11.6597925920015 0.98189250618944 -11.6597925920015 0.0490646295979215 66.6824794997485 
! Gamma         7.55496606956658 98.3030225716811 7.69648587050804 98.3123668248008 
! Port Impedance         50               0                50               0                
3                              0.0707883596166122 65.7530403680054 0.978307588896766 -17.4228439812794 0.978307588896766 -17.4228439812794 0.0708027201254271 65.6211262365104 
! Gamma         8.91220577354172 146.90426759784  9.09683865432116 146.841896512514 
! Port Impedance         50               0                50               0                
4                              0.0919986984626702 62.5453523548149 0.974313745792737 -23.1767728057372 0.974313745792737 -23.1767728057372 0.0920094292015358 62.3684758317532 
! Gamma         10.2101023801539 195.572776183236 10.4166079958651 195.43986613959  
! Port Impedance         50               0                50               0                
5                              0.112242769759296 58.3890002880923 0.969893463123536 -28.9124080773919 0.969893463123535 -28.9124080773919 0.112246826819835 58.1670211092713 
! Gamma         11.5082815477388 244.269095435921 11.7288041303291 244.069873449162 
! Port Impedance         50               0                50               0                
6                              0.131223398979048 53.7600021068055 0.965111657944395 -34.6234570861709 0.965111657944396 -34.6234570861709 0.131217985906725 53.4923160215692 
! Gamma         12.8232019243599 292.971740726773 13.0549629326589 292.709147108646 
! Port Impedance         50               0                50               0                
7                              0.14871687213016 48.8778306236538 0.960062303595585 -40.305724995335 0.960062303595586 -40.305724995335 0.148699418820867 48.5635512624808 
! Gamma         14.1592314258346 341.668847820131 14.4014561949916 341.344562206059 
! Port Impedance         50               0                50               0                
8                              0.164549163166372 43.8572443631908 0.954850663914417 -45.9567547665699 0.954850663914417 -45.9567547665699 0.164517312947942 43.4952477157528 
! Gamma         15.5165237144868 390.353381171971 15.7692760119952 389.9682104546   
! Port Impedance         50               0                50               0                
9                              0.17858559821978 38.7636708450421 0.949584030754466 -51.5756379395128 0.949584030754466 -51.5756379395128 0.178537189475213 38.352596669093  
! Gamma         16.8935107483732 439.020980187553 17.1572074932033 438.575151731858 
! Port Impedance         50               0                50               0                
10                             0.190724753465005 33.6366481601063 0.944365519816805 -57.1628616767226 0.944365519816805 -57.1628616767226 0.190657795595985 33.1748818447532 
! Gamma         18.2878685870473 487.668945070474 18.5630589369139 487.162298479171 
! Port Impedance         50               0                50               0                
11                             0.200893757065048 28.500969943286  0.939289566400231 -62.7201481446592 0.939289566400231 -62.7201481446592 0.200806402036133 27.9866110203744 
! Gamma         19.6969641800342 536.295710070677 19.9842215792938 535.727822034382 
! Port Impedance         50               0                50               0                
12                             0.209044169989226 23.3725306243405 0.934438686847861 -68.2502771813648 0.93443868684786 -68.2502771813647 0.208934680158401 22.8033485173898 
! Gamma         21.1180936483252 584.90053654883  21.4179605493498 584.270804798775 
! Port Impedance         50               0                50               0                
13                             0.215148287907803 18.2616793964633 0.929881286957862 -73.7568954770173 0.929881286957864 -73.7568954770173 0.215014999880582 17.6350545239131 
! Gamma         22.5486219027748 633.48331221726  22.8615812945542 632.791014195597 
! Port Impedance         50               0                50               0                
14                             0.219195916583106 13.1753237310505 0.925670342659115 -79.2443189028859 0.925670342659115 -79.2443189028858 0.219037199692371 12.4881702842857 
! Gamma         23.9860680173228 682.044406062997 24.3125295782391 681.288741485729 
! Port Impedance         50               0                50               0                
15                             0.221191715236423 8.11837891671675 0.921842789214461 -84.7173344711884 0.921842789214461 -84.7173344711884 0.221005921944683 7.36704361065258 
! Gamma         25.4281567009863 730.584555813752 25.7684514252771 729.764678314137 
! Port Impedance         50               0                50               0                
16                             0.221153183065813 3.09487677197601 0.91841946947504 -90.1810069873602 0.91841946947504 -90.1810069873602 0.220938587019732 2.27500530553696 
! Gamma         26.8728466525344 779.10477672188  27.2272266823307 778.219817955598 
! Port Impedance         50               0                50               0                
17                             0.21910932680449 -1.89108133670702 0.915405515495666 -95.6404938546438 0.915405515495666 -95.6404938546438 0.218864042174323 -2.78472227729476 
! Gamma         28.3183425180047 827.606286154311 28.6869841625034 826.65537423685  
! Port Impedance         50               0                50               0                
18                             0.215100009170423 -6.83439569652932 0.912791068478464 -101.100870203938 0.912791068478464 -101.100870203938 0.214821881912845 -7.80815889537686 
! Gamma         29.7630949063515 876.090440962263 30.1461036592016 875.072714672974 
! Port Impedance         50               0                50               0                
19                             0.209175947486953 -11.7279425516338 0.910552274425937 -106.566965686901 0.910552274425936 -106.566965686901 0.208862404545552 -12.7896304952066 
! Gamma         31.2057920475057 924.558685770339 31.6032087602633 923.473305292466 
! Port Impedance         50               0                50               0                
20                             0.201399310127985 -16.5613055331342 0.908652522888887 -112.043214023114 0.908652522888886 -112.043214023114 0.201047145148062 -17.7206326647997 
! Gamma         32.6453456443671 973.012510766144 33.0571533255344 971.858665761909 
! Port Impedance         50               0                50               0                
21                             0.191844850711686 -21.3190489100813 0.907043919873502 -117.533516545337 0.907043919873502 -117.533516545337 0.191449912284068 -22.5883030882016 
! Gamma         34.0808730786234 1021.45341797075 34.5070038932248 1020.23033336598 
! Port Impedance         50               0                50               0                
22                             0.180601532728392 -25.9781730484008 0.905669001025107 -123.041121507879 0.905669001025107 -123.041121507879 0.180158259065471 -27.3731862729435 
! Gamma         35.5116776121703 1069.88289468369 35.952019815806  1068.58983470217 
! Port Impedance         50               0                50               0                
23                             0.167774649795542 -30.5041007423246 0.904462695866545 -128.568521598773 0.904462695866546 -128.568521598773 0.167275353141635 -32.0457151882575 
! Gamma         36.9372277881008 1118.30239340653 37.3916324045365 1116.93866407696 
! Port Impedance         50               0                50               0                
24                             0.153488582671782 -34.8439345995463 0.903354547560819 -134.117372808235 0.903354547560819 -134.117372808235 0.152922308233491 -36.5602898937774 
! Gamma         38.3571370028211 1166.71331696008 38.8254241058022 1165.27826743585 
! Port Impedance         50               0                50               0                
25                             0.137890663229348 -38.91438582759  0.902271175554058 -139.688438304573 0.902271175554057 -139.688438304573 0.137241287029016 -40.844618740829 
! Gamma         39.7711438859921 1215.11700819833 40.2531083832116 1213.6100311327  
! Port Impedance         50               0                50               0                
26                             0.121157427636614 -42.5786080649649 0.90113894227224 -145.281561146428 0.901138942272239 -145.281561146428 0.120400307747319 -44.7790696786342 
! Gamma         41.1790939010583 1263.5147433226  41.6745108142164 1261.93527446951 
! Port Impedance         50               0                50               0                
27                             0.103506693354114 -45.598020631731 0.899886752756048 -150.895669336206 0.899886752756049 -150.895669336206 0.102602367479831 -48.1530827572475 
! Gamma         42.5809224761716 1311.90772817703 43.089551659371  1310.25524541598 
! Port Impedance         50               0                50               0                
28                             0.0852252504868094 -47.522029633157 0.898448882133494 -156.528815784083 0.898448882133494 -156.528815784083 0.0841065871134112 -50.5629416117692 
! Gamma         43.9766397590701 1360.29709686928 44.4982300826284 1358.57111878028 
! Port Impedance         50               0                50               0                
29                             0.0667435465323816 -47.4051592432113 0.896767695926706 -162.178254232725 0.896767695926706 -162.178254232725 0.065287150937009 -51.1380316305414 
! Gamma         45.3663170617631 1408.68391217774 45.9006100607828 1406.88399634062 
! Port Impedance         50               0                50               0                
30                             0.0488748225770549 -42.9930092497495 0.894796108230256 -167.840550133651 0.894796108230256 -167.840550133651 0.0468343228035905 -47.6807860845899 
! Gamma         46.7500749317243 1457.06916731213 47.2968079642041 1455.19490835344 
! Port Impedance         50               0                50               0                
31                             0.0337077249568795 -28.4781136022649 0.892499618212036 -173.511723066658 0.892499618212036 -173.511723066658 0.030617900168207 -33.6892893062373 
! Gamma         48.1280727895106 1505.45378867366 48.6869817331736 1503.50481617841 
! Port Impedance         50               0                50               0                
32                             0.0270928987517305 4.11091932481813 0.889857779548982 -179.187414841372 0.889857779548983 -179.187414841372 0.0230448654468858 3.47722433134952 
! Gamma         49.5005000222148 1553.83863921816 50.0713215403699 1551.81461560546 
! Port Impedance         50               0                50               0                
33                             0.0344036595517919 35.542614562959  0.886864990745869 175.136924772127 0.886864990745869 175.136924772127 0.0312323798113301 39.3054602345622 
! Gamma         50.8675683870141 1602.22452230754 51.4500418209295 1600.12514068659 
! Port Impedance         50               0                50               0                
34                             0.0495082772522314 49.0408698241017 0.883530543702911 169.465844335891 0.883530543702911 169.465844335891 0.0472923622776165 52.3723408581281 
! Gamma         52.2295056085486 1650.61218579987 52.8233745227979 1648.4371678316  
! Port Impedance         50               0                50               0                
35                             0.0668527848686364 53.0640857354357 0.879877927135648 163.80369947557  0.879877927135648 163.80369947557  0.0651704862393086 55.5350438441684 
! Gamma         53.5865500300721 1699.00232619065 54.1915634560387 1696.75142003624 
! Port Impedance         50               0                50               0                
36                             0.0845094392221924 53.0558751997578 0.875943442165145 158.154474276182 0.875943442165147 158.154474276182 0.0831318559849833 54.8878924943131 
! Gamma         54.9389461821564 1747.39559277148 55.5548596025325 1745.06857109166 
! Port Impedance         50               0                50               0                
37                             0.101726176381449 51.1253773935527 0.871774240919049 152.521624417566 0.871774240919049 152.521624417566 0.100535176857426 52.5026379462956 
! Gamma         56.2869411742765 1795.79259166591 56.9135172668692 1793.3892497687  
! Port Impedance         50               0                50               0                
38                             0.118110471345671 48.1660295261274 0.867425938086194 146.907949236265 0.867425938086194 146.907949236265 0.117039960772808 49.2091182421254 
! Gamma         57.6307817531611 1844.19388974236 58.2677909485942 1841.71404377489 
! Port Impedance         50               0                50               0                
39                             0.133409352356787 44.6078997204468 0.862959965707434 141.315497496603 0.862959965707433 141.315497496603 0.132419564455472 45.3959215833318 
! Gamma         58.9707119774132 1892.60001829222 59.6179328439891 1890.04350359632 
! Port Impedance         50               0                50               0                
40                             0.147439550034344 40.6809435118084 0.858440842238683 135.745509108312 0.858440842238684 135.745509108312 0.146505344957365 41.2677140097201 
! Gamma         60.3069713871491 1941.01147651577 60.9641908708922 1938.3781460764  
! Port Impedance         50               0                50               0                
41                             0.160061040474402 36.518556649973  0.853933510509434 130.198392611424 0.853933510509433 130.198392611424 0.159166132045587 36.9421985068333 
! Gamma         61.6397935985149 1989.42873476689 62.3068071486911 1986.71845778297 
! Port Impedance         50               0                50               0                
42                             0.171165184697864 32.2031803152838 0.8495008704347  124.673736238604 0.849500870434701 124.673736238604 0.170299077095589 32.4917697015901 
! Gamma         62.9694052560882 2037.85223755816 63.6460168486876 2035.06489813407 
! Port Impedance         50               0                50               0                
43                             0.180668400051325 27.7883953551989 0.845201597071345 119.170348885872 0.845201597071345 119.170348885872 0.179824664513479 27.9633876768074 
! Gamma         64.2960252838747 2086.28240635424 64.9820473653251 2083.41790228336 
! Port Impedance         50               0                50               0                
44                             0.188508158140478 23.3105257216421 0.841088298551055 113.686326435117 0.841088298551054 113.686326435117 0.187683421438769 23.3889192773942 
! Gamma         65.6198643782374 2134.71964209834 66.3151177437408 2131.77788378125 
! Port Impedance         50               0                50               0                
45                             0.194640095677582 18.7951836213833 0.837206036173141 108.219138519954 0.837206036173141 108.219138519954 0.193833431972687 18.7909467691659 
! Gamma         66.9411247007427 2183.16432757022 67.6454383220704 2180.14523700393 
! Port Impedance         50               0                50               0                
46                             0.199035772845157 14.2612218566174 0.833591203567718 102.765730919869 0.833591203567719 102.765730919869 0.198248338975114 14.186279944612  
! Gamma         68.2599997370301 2231.61682950825 68.9732105493677 2228.52033939249 
! Port Impedance         50               0                50               0                
47                             0.201680912012102 9.7232977145093  0.830270744681972 97.3226391565411 0.830270744681973 97.3226391565411 0.200915739949389 9.58825370271614 
! Gamma         69.5766742897247 2280.07750053637 70.2986269444669 2276.90355345199 
! Port Impedance         50               0                50               0                
48                             0.202574068793763 5.19367962816829 0.827261681431642 91.8861094137108 0.827261681431643 91.8861094137109 0.201835968164469 5.00837597798339 
! Gamma         70.8913245652825 2328.5466809352  71.6218711656654 2325.2952286214  
! Port Impedance         50               0                50               0                
49                             0.201725731014256 0.683655241547148 0.824570920088057 86.4522234727237 0.824570920088058 86.4522234727237 0.201021277139037 0.457648446107522 
! Gamma         72.2041183538116 2377.0247002368  72.9431181728978 2373.69570292879 
! Port Impedance         50               0                50               0                
50                             0.199157852217511 -3.79523052987728 0.82219530913545 81.0170248622847 0.822195309135451 81.0170248622847 0.19849544985521 -4.05223034845425 
! Gamma         73.515215266576  2425.51187866412 74.2625344530792 2422.10530452237 
! Port Impedance         50               0                50               0                
51                             0.194903824774106 -8.22993299835615 0.820121928473822 75.5766437610168 0.820121928473822 75.5766437610168 0.194293849352223 -8.50761321456456 
! Gamma         74.8247670201722 2474.0085284522  75.5802783046211 2470.52435302867 
! Port Impedance         50               0                50               0                
52                             0.189008894634519 -12.6044908373724 0.818328598282456 70.1274183720621 0.818328598282455 70.1274183720621 0.188463924476155 -12.8914342749766 
! Gamma         76.1329177596713 2522.51495501895 76.8965001548213 2518.95316080415 
! Port Impedance         50               0                50               0                
53                             0.181531023179168 -16.8982236584052 0.816784603748648 64.6660104632225 0.816784603748647 64.6660104632225 0.181066191134454 -17.1813026551025 
! Gamma         77.4398044011744 2571.03145803493 78.2113429091169 2567.39203406618 
! Port Impedance         50               0                50               0                
54                             0.172542222442493 -21.0832305176421 0.81545163731107 59.1895125875942 0.81545163731107 59.1895125875943 0.172175737360141 -21.3468319429681 
! Gamma         78.7455569932288 2619.55833241313 79.5249423123044 2615.84127390118 
! Port Impedance         50               0                50               0                
55                             0.162130446077014 -25.1206702088589 0.814284961682843 53.6955442155478 0.814284961682843 53.6955442155478 0.16188437020889 -25.3456629121062 
! Gamma         80.0502990854031 2668.09586916225 80.8374273284484 2664.30117719956 
! Port Impedance         50               0                50               0                
56                             0.150402247579346 -28.95490050299  0.813234793546701 48.1823336903857 0.8132347935467  48.1823336903858 0.150303676724009 -29.1172251615189 
! Gamma         81.3541480999185 2716.64435620035 82.1489205185537 2712.77203748229 
! Port Impedance         50               0                50               0                
57                             0.137486701439277 -32.5037423770879 0.812247898951925 42.648782672113  0.812247898951925 42.6487826721129 0.137569601599184 -32.5724758072639 
! Gamma         82.6572157030406 2765.20407907004 83.4595384217818 2761.25414568232 
! Port Impedance         50               0                50               0                
58                             0.12354171519389 -35.6414388290958 0.811269377252674 37.094509659587  0.811269377252674 37.094509659587  0.12384986133808 -35.5762190027642 
! Gamma         83.9596081685305 2813.77532160092 84.7693919321236 2809.74779081535 
! Port Impedance         50               0                50               0                
59                             0.108765326862656 -38.1671654150359 0.810244591925159 31.519869378472  0.810244591925159 31.519869378472  0.109357128936633 -37.9152022806912 
! Gamma         85.2614267405311 2862.35836651371 86.0785866670964 2858.25326062806 
! Port Impedance         50               0                50               0                
60                             0.0934181941552063 -39.7434991549783 0.809121185744338 25.9259453799615 0.809121185744339 25.9259453799615 0.0943747326930893 -39.2380171074902 
! Gamma         86.5627679780844 2910.95349596305 87.387223327186  2906.77084217105 
! Port Impedance         50               0                50               0                
61                             0.0778729900242819 -39.7699289542095 0.80785109741691 20.3145141508197 0.807851097416909 20.3145141508197 0.0793109821697542 -38.938774633028 
! Gamma         87.8637240956561 2959.56099205317 88.6953980497699 2955.30082233792 
! Port Impedance         50               0                50               0                
62                             0.0627325888018929 -37.1185852698613 0.806392480222323 14.6879803844795 0.806392480222322 14.6879803844795 0.0648210346314032 -35.9398958643467 
! Gamma         89.1643832887468 3008.18113729482 90.0032027424145 3003.84348834569 
! Port Impedance         50               0                50               0                
63                             0.0491248079099241 -29.6615146253331 0.804711413967618 9.04928471610459 0.804711413967619 9.04928471610459 0.0520776969401186 -28.4022469564873 
! Gamma         90.4648300490759 3056.81421504771 91.3107254130175 3052.39912819693 
! Port Impedance         50               0                50               0                
64                             0.0393212998146907 -14.2811448681539 0.802783302476718 3.40178704756686 0.802783302476718 3.40178704756685 0.0432177428703676 -14.1408943175055 
! Gamma         91.7651454659834 3105.4605099156  92.6180504792433 3100.96803110023 
! Port Impedance         50               0                50               0                
65                             0.0368211481316182 8.45170583181462 0.800593861476426 -2.25086961833926 0.800593861476426 -2.25086961833926 0.0410961194227824 5.61315749200139 
! Gamma         93.0654075132373 3154.12030812918 93.925259070392  3149.55048786794 
! Port Impedance         50               0                50               0                
66                             0.0428506324454499 28.4970734534268 0.798139625893883 -7.90490838061289 0.798139625893884 -7.90490838061295 0.0465630047488618 23.2478096709478 
! Gamma         94.3656913283351 3202.79389789678 95.2324293148738 3198.1467912826  
! Port Impedance         50               0                50               0                
67                             0.054352494787572 39.8516645688936 0.795427938994594 -13.5565731403302 0.795427938994594 -13.5565731403302 0.0571950484738808 33.9599259977192 
! Gamma         95.6660694721684 3251.48156974701 96.5396366125999 3246.75723646041 
! Port Impedance         50               0                50               0                
68                             0.0682018350011428 44.7690353311065 0.792476424527437 -19.2022807952837 0.792476424527438 -19.2022807952837 0.0702801982044698 38.9740884848052 
! Gamma         96.966612182975  3300.18361685225 97.8469538984325 3295.3821211819  
! Port Impedance         50               0                50               0                
69                             0.0827503272772721 46.048388586879  0.789311982070641 -24.8387631362005 0.789311982070641 -24.8387631362005 0.0842106464354272 40.4866869365483 
! Gamma         98.2673876173208 3348.90033533536 99.1544518910319 3344.02174621502 
! Port Impedance         50               0                50               0                
70                             0.0971812633513065 45.2849924191035 0.785969380015001 -30.4631915180219 0.785969380015001 -30.4631915180219 0.0981292078348272 39.9270558779013 
! Gamma         99.5684620765947 3397.6320245671  100.462199331934 3392.67641562691 
! Port Impedance         50               0                50               0                
71                             0.11103962333204 43.3162892636369 0.7824895458727  -36.0732787839346 0.7824895458727  -36.0732787839346 0.111543911256889 38.1026522407535 
! Gamma         100.869900227226 3446.3789874673  101.770263213804 3441.34643709384 
! Port Impedance         50               0                50               0                
72                             0.124036828130195 40.5993115850548 0.778917667332942 -41.6673546557164 0.778917667332942 -41.6673546557164 0.124141344302357 35.4733223963929 
! Gamma         102.171765307906 3495.14153078605 103.078708996286 3490.03212219483 
! Port Impedance         50               0                50               0                
73                             0.135971741308755 37.3987989666251 0.775301219153071 -47.2444126794385 0.775301219153072 -47.2444126794386 0.135704390283006 32.3123232608996 
! Gamma         103.474119330952 3543.91996538921 104.387600814751 3538.73378671045 
! Port Impedance         50               0                50               0                
74                             0.146696261122802 33.8771976271576 0.771688021926652 -52.8041285978281 0.771688021926652 -52.8041285978281 0.146074501947139 28.7898626410148 
! Gamma         104.777023272233 3592.71460654664 105.697001679747 3587.45175091053 
! Port Impedance         50               0                50               0                
75                             0.156098818336168 30.1394466693902 0.768124421719194 -58.3468515535136 0.768124421719194 -58.3468515535136 0.155133024893242 25.016712627817  
! Gamma         106.080537253568 3641.5257742078  107.006973666514 3636.18633985658 
! Port Impedance         50               0                50               0                
76                             0.16409558668246 26.2565406771253 0.76465365796599 -63.8735707013383 0.76465365796599 -63.8735707013383 0.162791076575145 21.067868262038  
! Gamma         107.384720720393 3690.35379329238 108.3175780991   3684.9378836804  
! Port Impedance         50               0                50               0                
77                             0.170625272356912 22.2786571072653 0.761314464275297 -69.3858605729935 0.761314464275297 -69.3858605729935 0.168983512608052 16.9959919457929 
! Gamma         108.689632610339 3739.19899397458 109.628875726732 3733.70671789667 
! Port Impedance         50               0                50               0                
78                             0.175645714874527 18.2428984198668 0.758139925793636 -74.8858089367956 0.758139925793635 -74.8858089367956 0.173664996906217 12.83943421387   
! Gamma         109.99533151617  3788.06171198058 110.940926892824 3782.49318370155 
! Port Impedance         50               0                50               0                
79                             0.179131517401076 14.1781373728977 0.755156599561101 -80.3759309525341 0.7551565995611  -80.3759309525341 0.176807265920048 8.62727001636388 
! Gamma         111.301875845134 3836.94228888166 112.253791701265 3831.29762826698 
! Port Impedance         50               0                50               0                
80                             0.18107235786543 10.1082604643979 0.752383891849761 -85.8590732741298 0.752383891849761 -85.8590732741298 0.178397161513354 4.38264790369456 
! Gamma         112.60932397188  3885.84107240743 113.567530173983 3880.12040507964 
! Port Impedance         50               0                50               0                
81                             0.181471829188988 6.05452538765653 0.749833679038332 -91.3383114504117 0.749833679038332 -91.3383114504117 0.178435231410953 0.125178629418274 
! Gamma         113.917734389468 3934.75841675436 114.882202409543 3928.96187424202 
! Port Impedance         50               0                50               0                
82                             0.180346748853324 2.03746035802285 0.747510155543917 -96.8168436394199 0.747510155543917 -96.8168436394199 0.176934801235473 -4.12720135740921 
! Gamma         115.22716585431  3983.69468291858 116.197868731471 3977.82240282385 
! Port Impedance         50               0                50               0                
83                             0.177726922576074 -1.92140714886723 0.745409892774913 -102.297883344032 0.745409892774913 -102.297883344032 0.173921471015057 -8.35660139162907 
! Gamma         116.537677531538 4032.65023902267 117.514589840981 4026.70236519134 
! Port Impedance         50               0                50               0                