! Touchstone file exported from HFSS 2024.2.0
!        File:           C:/Users/vaintrug/Documents/Ansoft_Workspace/Comparaison_Calculs_HFSS/1_VarPort.aedt
!        Generated:      03:22:19 PM Jan 21, 2025
!        Design:         1_NoDeembed_FacePortFree
!        Project:        1_VarPort
!        Setup:          Setup1
!        Solution:       Sweep
!
! Variables:
!        $Lenght = 2000um
!        $PortSize = 370um
!        Gap = 30um
!        Th = 2um
!        X_centralStrip = 20um
!        X_masse = 200um
!        Y_Sub = 2mm
!        Z_Box = 400um
!        Z_Sub = 200um
!
# GHz S MA R 50.000000
! Terminal data exported
! Port[1] = 1
! Port[2] = 2
1                              0.0276697819968256 61.1633899895358 0.985398476829476 -5.89828895991034 0.985398476829477 -5.89828895991034 0.0276694152432956 61.1877131391781 
! Gamma         6.05319119448313 50.121884205331  5.88107596722568 49.7915466461542 
! Port Impedance         50               0                50               0                
2                              0.0492724200100429 66.7040887372727 0.981850706793406 -11.6597880616547 0.981850706793406 -11.6597880616547 0.0492738556568088 66.7521486836011 
! Gamma         7.88577161815562 98.7712722478701 7.6139448589549  98.3256184684876 
! Port Impedance         50               0                50               0                
3                              0.0711058447406544 65.6441735523506 0.978253766730163 -17.4223166153307 0.978253766730163 -17.4223166153307 0.0711108560456584 65.7166701530852 
! Gamma         9.32929711337914 147.456126381166 9.02202435701329 146.879000792887 
! Port Impedance         50               0                50               0                
4                              0.092408579863207 62.3968720261713 0.974244062927106 -23.1756412036618 0.974244062927106 -23.1756412036618 0.0924193217111108 62.4941627707947 
! Gamma         10.6766340210819 196.213649554546 10.3466076550542 195.491590736133 
! Port Impedance         50               0                50               0                
5                              0.112742268989283 58.2027207711739 0.969804349578581 -28.9105384901145 0.96980434957858 -28.9105384901146 0.112760874121253 58.3251631792684 
! Gamma         12.0110804327711 245.007012302437 11.6608405957451 244.133832885791 
! Port Impedance         50               0                50               0                
6                              0.131809954201722 53.5364212044799 0.964999833628923 -34.6206789675319 0.964999833628923 -34.6206789675319 0.131838447594055 53.6844699918857 
! Gamma         13.3578568955897 293.811837413963 12.9872419719432 292.784841781275 
! Port Impedance         50               0                50               0                
7                              0.149388210966717 48.6167899973609 0.959924894670671 -40.3018350394441 0.959924894670672 -40.3018350394441 0.149428481609731 48.7910262596562 
! Gamma         14.7247799148548 342.613835470627 14.3327977105211 341.432118241725 
! Port Impedance         50               0                50               0                
8                              0.165303375406413 43.5581752980862 0.954685291450384 -45.9515212706335 0.954685291450383 -45.9515212706335 0.165357169124173 43.7593258000357 
! Gamma         16.113431334355  391.404335613216 15.6988742362909 390.067996505    
! Port Impedance         50               0                50               0                
9                              0.179421194269936 38.4256818276058 0.949388863768648 -51.5688054392753 0.949388863768647 -51.5688054392753 0.179490119232306 38.654640008973  
! Gamma         17.5228188652068 440.17789882137  17.084502359479  438.687638364084 
! Port Impedance         50               0                50               0                
10                             0.191640697395782 33.2585431254025 0.94413930348927 -57.1541555261068 0.944139303489269 -57.1541555261068 0.191726239741479 33.5163954227418 
! Gamma         18.9508012084574 488.93110835901  18.4876644254316 487.287996851963 
! Port Impedance         50               0                50               0                
11                             0.201889469427607 28.0812295659078 0.939031635609739 -62.7092789360537 0.93903163560974 -62.7092789360537 0.201993018182386 28.3692891062116 
! Gamma         20.3947350278971 537.661919318718 19.9058824177322 535.867253140165 
! Port Impedance         50               0                50               0                
12                             0.210119498092922 22.9092680408012 0.934148972525074 -68.2369450356566 0.934148972525074 -68.2369450356565 0.210242379314689 23.2291178568151 
! Gamma         21.8518088618113 586.369276085057 21.3365236283072 584.424481986285 
! Port Impedance         50               0                50               0                
13                             0.216303441927531 17.7525728109816 0.929560320385271 -73.7407943038832 0.929560320385272 -73.7407943038832 0.216446962540348 18.1061213111219 
! Gamma         23.3192324794397 635.052864134654 22.7769750348304 632.959432391621 
! Port Impedance         50               0                50               0                
14                             0.22043136968831 12.6175234426907 0.925319260780904 -79.2251407642081 0.925319260780905 -79.2251407642081 0.220596872104955 13.007075975696  
! Gamma         24.7943497716738 683.712933913249 24.2247479426282 681.472370347682 
! Port Impedance         50               0                50               0                
15                             0.222508065156258 7.50838255190099 0.921463342166021 -84.6947741827269 0.921463342166023 -84.6947741827269 0.222696994617164 7.93673433690317 
! Gamma         26.2747062765641 732.350166864993 25.6775408826515 729.963958010678 
! Port Impedance         50               0                50               0                
16                             0.222550970973744 2.42836231856809 0.91801402990541 -90.1547671051342 0.91801402990541 -90.1547671051343 0.222764958750339 2.89892041437565 
! Gamma         27.758087141258  780.965568818344 27.1332751788032 778.435156830013 
! Port Impedance         50               0                50               0                
17                             0.220588807497461 -2.61948066689932 0.914977087729377 -95.6102901515854 0.914977087729377 -95.6102901515854 0.220829774834821 -2.10253535147231 
! Gamma         29.242534746845  829.560382957087 28.5901116929272 826.887147983634 
! Port Impedance         50               0                50               0                
18                             0.216660863574307 -7.63139913646107 0.912343294243021 -101.066437700868 0.912343294243021 -101.066437700868 0.216931153850293 -7.06289359656692 
! Gamma         30.7263520051893 878.136018235308 30.0464541822944 875.321266604609 
! Port Impedance         50               0                50               0                
19                             0.210816923730475 -12.6020498040166 0.910089430813739 -106.528065252037 0.910089430813739 -106.528065252037 0.211119474378512 -11.9755200115311 
! Gamma         32.2080955762755 926.693990560082 31.5009432727054 923.738947499471 
! Port Impedance         50               0                50               0                
20                             0.203117771781754 -17.5234051006848 0.90817950740587 -111.999639479407 0.90817950740587 -111.999639479407 0.203456344061983 -16.8306788739795 
! Gamma         33.686562247305  975.235875003257 32.9524440089409 972.141680939508 
! Port Impedance         50               0                50               0                
21                             0.193636197187381 -22.3833047908893 0.906566216988074 -117.485102133328 0.906566216988073 -117.485102133328 0.194015692905731 -21.6139071730112 
! Gamma         35.1607708975946 1023.7632674759  34.400029245306  1020.53097705736 
! Port Impedance         50               0                50               0                
22                             0.182458431468065 -27.1633558865394 0.90519262471512 -122.987749466945 0.90519262471512 -122.987749466945 0.182885344971068 -26.3036407865232 
! Gamma         36.6299419531617 1072.27775461361 35.8429606403301 1068.90833785994 
! Port Impedance         50               0                50               0                
23                             0.169685971009114 -31.8356562217849 0.903994103340771 -128.510129538054 0.90399410334077 -128.510129538054 0.170169059887121 -30.8675030329642 
! Gamma         38.0934757393431 1120.7808908034  37.2806686035189 1117.27523574244 
! Port Impedance         50               0                50               0                
24                             0.155437828737707 -36.3573297295915 0.902900520706572 -134.053960444378 0.902900520706573 -134.053960444378 0.155989153826993 -35.2561256579053 
! Gamma         39.5509308186494 1169.27418107488 38.7127321554645 1165.63309751954 
! Port Impedance         50               0                50               0                
25                             0.139853474505674 -40.6607858141578 0.901838668839909 -139.62007308257 0.901838668839909 -139.62007308257 0.14049009547425 -39.3921939926768 
! Gamma         41.0020030255803 1217.75906910678 40.1388594299961 1213.98329307002 
! Port Impedance         50               0                50               0                
26                             0.123097267584246 -44.6350622153654 0.900734898714522 -145.20838222854 0.900734898714523 -145.20838222854 0.12384417211965 -43.1496564248533 
! Gamma         42.4465057392527 1266.23692919211 41.5588692695751 1262.32712784108 
! Port Impedance         50               0                50               0                
27                             0.105366631202735 -48.0869794056565 0.899517892925707 -150.817889442679 0.899517892925707 -150.817889442679 0.106262148940058 -46.3110562453195 
! Gamma         43.8843516745692 1314.70906163323 42.9726742424789 1310.66583839133 
! Port Impedance         50               0                50               0                
28                             0.0869105115451286 -50.6515927753022 0.898121474816957 -156.446720447018 0.898121474816956 -156.446720447018 0.0880171377093218 -48.4714056351027 
! Gamma         45.3155363935951 1363.17669068441 44.3802652196476 1359.00059039332 
! Port Impedance         50               0                50               0                
29                             0.0680794945494635 -51.557600403067 0.896487322348487 -162.092198138229 0.896487322348487 -162.092198138229 0.0695074508957002 -48.7961134492521 
! Gamma         46.7401235649294 1411.6409645563  45.7816975717726 1407.33247857586 
! Port Impedance         50               0                50               0                
30                             0.0494912924120086 -48.9085606213893 0.894567434266177 -167.750950407307 0.894567434266177 -167.750950407307 0.0514525587801365 -45.334535299134 
! Gamma         48.158231961749  1460.10295693856 47.1770789944498 1455.66252802169 
! Port Impedance         50               0                50               0                
31                             0.0327183449965428 -37.1891507195622 0.892326190206287 -173.419049571558 0.892326190206286 -173.419049571558 0.0356138356760171 -33.0462496407457 
! Gamma         49.5700241397285 1508.56366964739 48.5665588631102 1503.99169661008 
! Port Impedance         50               0                50               0                
32                             0.0231974350433834 -3.57783302641019 0.889741858854556 -179.092177791244 0.889741858854555 -179.092177791244 0.0270909855837432 -3.10245584164776 
! Gamma         50.9756966383892 1557.02403605821 49.9503190333104 1552.32087817938 
! Port Impedance         50               0                50               0                
33                             0.0292758506953761 35.4132887369178 0.886807439805049 175.234189357773 0.886807439805048 175.234189357773 0.0323812814817568 30.7380935936393 
! Gamma         52.3754716334921 1605.4849250504  51.3285659757037 1600.65090613828 
! Port Impedance         50               0                50               0                
34                             0.0446876329171573 51.0284621044163 0.883530772580443 169.564590626521 0.883530772580442 169.564590626521 0.0467063042649175 46.5651104310639 
! Gamma         53.7695898531513 1653.94714527865 52.7015240986589 1648.98255743009 
! Port Impedance         50               0                50               0                
35                             0.0624040563060693 55.1447435403814 0.879933904399286 163.903388457143 0.879933904399286 163.903388457143 0.0637866514606877 51.550908833574  
! Gamma         55.1583046503793 1702.41144953321 54.0694301483815 1697.31655660635 
! Port Impedance         50               0                50               0                
36                             0.080348145109739 54.9187349005764 0.876051768590731 158.254590140052 0.876051768590731 158.254590140052 0.0813438448230354 51.9555539228624 
! Gamma         56.5418770717538 1750.87853916115 55.4325285445777 1745.65357990876 
! Port Impedance         50               0                50               0                
37                             0.0977966189649615 52.7592303268545 0.871930279438215 152.62168990584  0.871930279438216 152.62168990584  0.0985284503820311 50.2198228188752 
! Gamma         57.9205718128241 1799.34906837676 56.7910675440014 1793.99425930921 
! Port Impedance         50               0                50               0                
38                             0.114383556229541 49.6069095211088 0.867623989382101 147.007539239078 0.867623989382101 147.007539239078 0.11491622849842 47.3561055120226 
! Gamma         59.2946539273547 1847.82364843524 58.1452961164546 1842.33918640776 
! Port Impedance         50               0                50               0                
39                             0.129872093028849 45.8935330706703 0.863193476362217 141.414250377468 0.863193476362218 141.414250377468 0.130241410622436 43.8423925400214 
! Gamma         60.6643861990832 1896.3028516064  59.4954614369666 1890.68891614443 
! Port Impedance         50               0                50               0                
40                             0.144088424375637 41.8431868051505 0.858702631481633 135.843135424661 0.858702631481632 135.843135424661 0.14431442228501 39.9303563742454 
! Gamma         62.0300270547556 1944.78721494821 60.8418068939896 1939.04397032533 
! Port Impedance         50               0                50               0                
41                             0.156898210562767 37.5833795702385 0.854216002328599 130.294681091824 0.8542160023286  130.294681091824 0.15699152776035 35.7642017673694 
! Gamma         63.3918289621985 1993.27724379803 62.1845705512276 1987.40484090861 
! Port Impedance         50               0                50               0                
42                             0.16819635262873 33.1919602467262 0.849796319714962 124.768557054181 0.849796319714962 124.768557054181 0.168161566715735 31.4321338513923 
! Gamma         64.7500372134663 2041.77341506281 63.523983978047  2035.77199308969 
! Port Impedance         50               0                50               0                
43                             0.177901589504728 28.7191966946648 0.845502301079426 119.263654386697 0.845502301079426 119.263654386697 0.177739065608552 26.9909431239327 
! Gamma         66.1048890482857 2090.27618023499 64.8602713915144 2084.14586813237 
! Port Impedance         50               0                50               0                
44                             0.18595303748089 24.1991346640131 0.841386788003138 113.778149610439 0.841386788003138 113.778149610439 0.18565999151719 22.4787592294989 
! Gamma         67.4566130382586 2138.78596817382 66.1936490597464 2132.52688598886 
! Port Impedance         50               0                50               0                
45                             0.192307630557827 19.6559157999992 0.837495242907098 108.309589489121 0.837495242907097 108.309589489121 0.19187874435597 17.9221621080719 
! Gamma         68.8054287109924 2187.30318766511 67.5243249210391 2180.91544771671 
! Port Impedance         50               0                50               0                
46                             0.196938087166639 15.1075640690712 0.833864604160567 102.854991766867 0.833864604160568 102.854991766867 0.196365846161912 13.3404238565595 
! Gamma         70.151546346331  2235.82822975481 68.8524983720753 2229.3119376698  
! Port Impedance         50               0                50               0                
47                             0.199831286240326 10.5684423007983 0.830522481068599 97.4109573963705 0.830522481068599 97.4109573963705 0.199106127356343 8.74822047297977 
! Gamma         71.4951669290955 2284.36146987271 70.1783602063352 2277.71672551278 
! Port Impedance         50               0                50               0                
48                             0.200987034633994 6.05100010262582 0.827486660604982 91.9737903396261 0.827486660604981 91.9737903396261 0.200097346552756 4.15750678601906 
! Gamma         72.8364822131617 2332.9032697745  71.5020926592769 2326.13016805238 
! Port Impedance         50               0                50               0                
49                             0.200417241642863 1.56716397580683 0.824764895317861 86.5396215848851 0.82476489531786 86.5396215848851 0.199349231292456 -0.421058019017207 
! Gamma         74.1756748890038 2381.45397929839 72.8238695466427 2374.55261090554 
! Port Impedance         50               0                50               0                
50                             0.198145523096217 -2.87040560013373 0.822354944957819 81.1045345277611 0.822354944957819 81.1045345277611 0.196882940587787 -4.97689376249496 
! Gamma         75.5129188146028 2430.01393796122 74.1438564721662 2422.98439000816 
! Port Impedance         50               0                50               0                
51                             0.194207255458896 -7.24701550954493 0.820244851033587 75.6646892224421 0.820244851033587 75.6646892224421 0.192730948653351 -9.49831534705118 
! Gamma         76.8483793097132 2478.58347640713 75.4622110936977 2471.42583299924 
! Port Impedance         50               0                50               0                
52                             0.188650099640598 -11.5444259789036 0.818413431678935 70.2164431981331 0.818413431678935 70.2164431981331 0.186937343843001 -13.971217915268 
! Gamma         78.1822134850132 2527.16291772179 76.7790834202079 2519.87726046434 
! Port Impedance         50               0                50               0                
53                             0.181535023767938 -15.7389030294293 0.816830991923729 64.7564665311767 0.816830991923728 64.7564665311766 0.179558535609897 -18.3774349438432 
! Gamma         79.5145706027868 2575.75257862359 78.0946161467455 2568.33898706367 
! Port Impedance         50               0                50               0                
54                             0.172937885923663 -19.7985158599516 0.815460249945335 59.2818487063679 0.815460249945335 59.2818487063679 0.170664374048891 -22.6924829560678 
! Gamma         80.8455924605068 2624.35277053839 79.4089450050217 2616.81132257322 
! Port Impedance         50               0                50               0                
55                             0.162951713136058 -23.6791577196882 0.814257481644256 53.7901945354005 0.814257481644256 53.7901945354005 0.160339726146847 -26.882219705605 
! Gamma         82.1754137807224 2672.96380057921 80.7221991272792 2665.29457282136 
! Port Impedance         50               0                50               0                
56                             0.15168997405473 -27.318392595805 0.813173882860906 48.2797060984465 0.813173882860906 48.2797060984465 0.148686650221325 -30.8975692875843 
! Gamma         83.504162610089  2721.58597244161 82.0345014145454 2713.78904052816 
! Port Impedance         50               0                50               0                
57                             0.139291479190869 -30.6255135404883 0.812157140156073 42.7492474350438 0.812157140156073 42.7492474350438 0.135827531734605 -34.6657031511188 
! Gamma         84.8319607150877 2770.21958721208 83.3459689081115 2762.2950261031  
! Port Impedance         50               0                50               0                
58                             0.12592825159185 -33.4648058127216 0.811153187471887 37.1983886406146 0.811153187471887 37.1983886406147 0.121910048617976 -38.0744270873431 
! Gamma         86.1589239793573 2818.86494410402 84.6567131589985 2810.8128283397  
! Port Impedance         50               0                50               0                
59                             0.111819247885305 -35.6262693182476 0.810108108126368 31.6274262104288 0.810108108126367 31.6274262104288 0.107116033634464 -40.9428052062893 
! Gamma         87.4851627880607 2867.52234114303 85.9668405894535 2859.34274508676 
! Port Impedance         50               0                50               0                
60                             0.0972562532515586 -36.7728099038503 0.8089701213466  26.0373770107986 0.8089701213466  26.0373770107986 0.0916793541819477 -42.9620789810021 
! Gamma         88.8107824094455 2916.19207577408 87.2764528487216 2907.88507383134 
! Port Impedance         50               0                50               0                
61                             0.082656113267506 -36.344429628219 0.807691572647653 20.4299441849881 0.807691572647653 20.4299441849881 0.0759264045121751 -43.5681327260195 
! Gamma         90.1358833591534 2964.8744454539  88.585647158668  2956.44011227302 
! Port Impedance         50               0                50               0                
62                             0.0686702202695363 -33.3976873180496 0.806230831071184 14.8074546058215 0.806230831071184 14.8074546058215 0.0603784996329592 -41.6492620489511 
! Gamma         91.4605617596002 3013.56974816061 89.8945166496056 3005.00815882408 
! Port Impedance         50               0                50               0                
63                             0.0564044844148093 -26.4437567377219 0.804553987004195 9.17276910248578 0.804553987004195 9.17276910248579 0.0460356457385174 -34.8954141882115 
! Gamma         92.7849096799309 3062.27828290047 91.2031506837575 3053.58951309648 
! Port Impedance         50               0                50               0                
64                             0.0477279398308464 -13.8865669776869 0.802636244790047 3.52916847202659 0.802636244790047 3.5291684720266  0.0351269845590271 -19.0963833621419 
! Gamma         94.1090154673211 3111.00035015887 92.5116351671072 3102.18447635611 
! Port Impedance         50               0                50               0                
65                             0.0450273621170318 3.36030807831343 0.800462916248465 -2.11977995890783 0.800462916248465 -2.11977995890783 0.0317977243288181 6.92573714471438 
! Gamma         95.4329640636948 3159.73625233866 93.8200528499144 3150.79335194647 
! Port Impedance         50               0                50               0                
66                             0.0492491762262744 19.6975753722218 0.79802994435452 -7.77036892899174 0.79802994435452 -7.77036892899174 0.0380168951316832 30.0812168672505 
! Gamma         96.7568373088106 3208.48629416505 95.1284836147503 3199.41644568916 
! Port Impedance         50               0                50               0                
67                             0.0586602771753689 30.615939817037  0.795343918632742 -13.4189036248411 0.795343918632741 -13.4189036248411 0.0500413539001658 42.1678097421472 
! Gamma         98.0807142296876 3257.25078308011 96.4370047522701 3248.05406626924 
! Port Impedance         50               0                50               0                
68                             0.0708409326221903 36.3099236437399 0.792421581496977 -19.0618519895572 0.792421581496978 -19.0618519895572 0.0642681464527402 46.8739973471196 
! Gamma         99.404671318782  3306.03002961124 97.7456912260144 3296.70652561789 
! Port Impedance         50               0                50               0                
69                             0.084145031656427 38.4863129841525 0.789288862984369 -24.6959852725581 0.789288862984369 -24.6959852725581 0.0790250837479204 47.7676516277776 
! Gamma         100.72878279976  3354.82434773396 99.0546159271532 3345.37413925335 
! Port Impedance         50               0                50               0                
70                             0.0976315282198551 38.4775593647548 0.785979515127043 -30.3185019508874 0.785979515127043 -30.3185019508874 0.0935468495787412 46.6334799530072 
! Gamma         102.053120879018 3403.63405522323 100.363849915209 3394.05722664978 
! Port Impedance         50               0                50               0                
71                             0.110748130293695 37.1005807805198 0.782533442449462 -35.927129498151 0.782533442449462 -35.927129498151 0.107418644821978 44.3405872000789 
! Gamma         103.377755991532 3452.45947399283 101.67346265306  3442.75611156513 
! Port Impedance         50               0                50               0                
72                             0.123143696277218 34.8407994149165 0.7789948392089  -41.5202001670863 0.7789948392089  -41.5202001670863 0.120377120716088 41.342413262759  
! Gamma         104.702757029651 3501.30093043756 102.983522230493 3491.4711223958  
! Port Impedance         50               0                50               0                
73                             0.134577632353402 31.9937267004335 0.775410246373149 -47.0966987816646 0.775410246373149 -47.0966987816646 0.132236505326343 37.8941196269347 
! Gamma         106.028191567866 3550.15875576106 104.294095577957 3540.20259250668 
! Port Impedance         50               0                50               0                
74                             0.144876344114901 28.7462577246685 0.771826633159518 -52.656282291352 0.771826633159518 -52.656282291352 0.142858086042771 34.1491468541571 
! Gamma         107.354126074975 3599.03328632491 105.605248673941 3588.950860568   
! Port Impedance         50               0                50               0                
75                             0.153911177968891 25.2213806622276 0.768289591808742 -58.1992723645321 0.768289591808742 -58.1992723645321 0.152136038105519 30.205097578364  
! Gamma         108.680626120698 3647.92486396845 106.917046744062 3637.71627090236 
! Port Impedance         50               0                50               0                
76                             0.161586398352686 21.503181256205  0.764841713452826 -63.7266234738804 0.764841713452827 -63.7266234738804 0.159989990647519 26.1271363775932 
! Gamma         110.007756571559 3696.83383635702 108.229554454515 3686.49917383067 
! Port Impedance         50               0                50               0                
77                             0.167832082074352 17.6513317662425 0.761521190786611 -69.2398697146387 0.761521190786613 -69.2398697146387 0.166360614854723 21.9607382451927 
! Gamma         111.33558178349  3745.76055732515 109.542836098143 3735.29992601384 
! Port Impedance         50               0                50               0                
78                             0.172599581303468 13.7098531262422 0.758360672638591 -74.7410540111027 0.758360672638591 -74.7410540111027 0.17120670305018 17.7390808412626 
! Gamma         112.664165785642 3794.7053872264  110.856955776083 3784.11889081771 
! Port Impedance         50               0                50               0                
79                             0.17585844839786 9.71267591421222 0.755386378446244 -80.2326434635304 0.755386378446244 -80.2326434635304 0.174503084791008 13.4876089137426 
! Gamma         113.993572460943 3843.66869329063 112.171977574761 3832.95643867821 
! Port Impedance         50               0                50               0                
80                             0.17759429126476 5.68737587683602 0.75261746818877 -85.7174344569971 0.75261746818877 -85.7174344569971 0.176239099786566 9.22705633055194 
! Gamma         115.323865720543 3892.65084999988 113.487965738133 3881.81294747971 
! Port Impedance         50               0                50               0                
81                             0.177807302596456 1.65786830103065 0.750065655693804 -91.1984508835869 0.750065655693804 -91.1984508835869 0.176417511951717 4.97562395121078 
! Gamma         116.655109675426 3941.65223945716 114.804984838783 3930.68880294087 
! Port Impedance         50               0                50               0                
82                             0.176511340245026 -2.35346139122616 0.747735049962629 -96.6788385157367 0.747735049962629 -96.6788385157367 0.175053821518906 0.750725793744926 
! Gamma         117.987368804259 3990.67325179286 116.123099944006 3979.58439902156 
! Port Impedance         50               0                50               0                
83                             0.173733503764823 -6.32386836638701 0.745622209260625 -102.161758269033 0.745622209260623 -102.161758269033 0.172175964192176 -3.42941968850006 
! Gamma         119.320708119181 4039.71428555875 117.442376782292 4028.50013833679 
! Port Impedance         50               0                50               0                