! Touchstone file exported from HFSS 2024.2.0
!        File:           C:/Users/vaintrug/Documents/Ansoft_Workspace/Comparaison_Calculs_HFSS/1_VarPort.aedt
!        Generated:      03:22:16 PM Jan 21, 2025
!        Design:         1_NoDeembed_FacePortFree
!        Project:        1_VarPort
!        Setup:          Setup1
!        Solution:       Sweep
!
! Variables:
!        $Lenght = 1500um
!        $PortSize = 190um
!        Gap = 30um
!        Th = 2um
!        X_centralStrip = 20um
!        X_masse = 200um
!        Y_Sub = 1.5mm
!        Z_Box = 400um
!        Z_Sub = 200um
!
# GHz S MA R 50.000000
! Terminal data exported
! Port[1] = 1
! Port[2] = 2
1                              0.0211437503817016 62.9335051979803 0.989062166793693 -4.43854854135658 0.989062166793693 -4.43854854135658 0.0211435658595883 62.9440908014679 
! Gamma         5.82946811236371 49.8850278037201 5.94153937482066 50.1106733575327 
! Port Impedance         50               0                50               0                
2                              0.0378170758911826 69.6705375222821 0.986478377958306 -8.77256208776399 0.986478377958307 -8.77256208776399 0.0378165915090613 69.6934773697329 
! Gamma         7.56603980061888 98.4287021918509 7.76232021995635 98.7706464142438 
! Port Impedance         50               0                50               0                
3                              0.0548199944607274 69.9513539066969 0.98395290215406 -13.109892962168 0.983952902154061 -13.109892962168 0.0548201541743042 69.9872378976081 
! Gamma         8.95755934939998 147.031788616059 9.19547384751993 147.470620836387 
! Port Impedance         50               0                50               0                
4                              0.0716824010780271 68.0721594785776 0.981172320132141 -17.4452324453605 0.981172320132141 -17.4452324453605 0.0716842529361433 68.1208755656585 
! Gamma         10.2732704553234 195.703670208591 10.535927914685  196.24365038273  
! Port Impedance         50               0                50               0                
5                              0.0881418158869913 65.2431760582433 0.978089289115811 -21.7728437596711 0.978089289115811 -21.7728437596711 0.0881463190214146 65.3046877181411 
! Gamma         11.5829787811049 244.406281758235 11.8647781469809 245.051685638032 
! Port Impedance         50               0                50               0                
6                              0.104028325602057 61.9288201908102 0.974717895129681 -26.0886779201104 0.974717895129682 -26.0886779201104 0.104036370814349 62.0031722991792 
! Gamma         12.9068407001955 293.117130903609 13.2061589682106 293.870450001916 
! Port Impedance         50               0                50               0                
7                              0.119214883955295 58.3432673880007 0.971093285082659 -30.3897562258207 0.97109328508266 -30.3897562258207 0.119227302513113 58.4305616482478 
! Gamma         14.2507444065192 341.823448103006 14.5674541997354 342.685869046052 
! Port Impedance         50               0                50               0                
8                              0.133599561402532 54.5986222856285 0.96726016006949 -34.6738733546507 0.967260160069489 -34.6738733546508 0.133617127882312 54.6990037668922 
! Gamma         15.6155368774787 390.517546573645 15.9500905318087 391.489416872512 
! Port Impedance         50               0                50               0                
9                              0.147098462386136 50.7591479266906 0.963267922330162 -38.9394696519999 0.963267922330161 -38.9394696519998 0.147121896049521 50.8727982754021 
! Gamma         16.9999850793172 439.194597927951 17.3530388730113 440.275726913356 
! Port Impedance         50               0                50               0                
10                             0.159642357913961 46.8641981302132 0.959167848512895 -43.1855649108486 0.959167848512894 -43.1855649108486 0.159672323833645 46.9913321249054 
! Gamma         18.4019278474782 487.851553956264 18.7741730702608 489.041401111621 
! Port Impedance         50               0                50               0                
11                             0.171174682426276 42.9390389180099 0.955011093004625 -47.4117111329623 0.955011093004625 -47.4117111329623 0.171211792606648 43.0799028293979 
! Gamma         19.818804351953  536.486579262816 20.2108874494193 537.784375534745 
! Port Impedance         50               0                50               0                
12                             0.181650046526537 39.0004207769135 0.950847160669445 -51.6179486415821 0.950847160669445 -51.6179486415821 0.181694860981507 39.1552917922956 
! Gamma         21.2479318569225 585.09871914825  21.6604167893047 586.503548858506 
! Port Impedance         50               0                50               0                
13                             0.191032955560726 35.0596643089201 0.946722721486829 -55.8047604612589 0.94672272148683 -55.8047604612589 0.191085983232438 35.2288506451399 
! Gamma         22.6866669419567 633.687683458637 23.1200185631055 635.198541712375 
! Port Impedance         50               0                50               0                
14                             0.199296630365644 31.1244802057609 0.942680707822855 -59.973024098876 0.942680707822856 -59.973024098876 0.199358329755915 31.3083217304106 
! Gamma         24.1325025056114 682.253691650175 24.5870821948915 683.869525861219 
! Port Impedance         50               0                50               0                
15                             0.206421907908805 27.2001054957144 0.938759653878536 -64.1239614284221 0.938759653878536 -64.1239614284221 0.206492687310509 27.3989747863479 
! Gamma         25.5831268187932 730.797353548733 26.059194669484  732.517094080133 
! Port Impedance         50               0                50               0                
16                             0.212396229371873 23.290051481171  0.934993241375685 -68.2590878278207 0.934993241375685 -68.2590878278207 0.212476446610174 23.5043552572401 
! Gamma         27.0364564557517 779.319573630427 27.5341775883515 781.142156387346 
! Port Impedance         50               0                50               0                
17                             0.217212731345184 19.396621665368  0.931410016994435 -72.3801616708144 0.931410016994435 -72.3801616708144 0.217302692972864 19.6268026200877 
! Gamma         28.4906516568703 827.821471946026 29.0101044820677 829.745855177061 
! Port Impedance         50               0                50               0                
18                             0.220869455004423 15.521288906692  0.92803324897473 -76.4891350243466 0.92803324897473 -76.4891350243466 0.220969414920723 15.7678279370166 
! Gamma         29.9441183319539 876.304318910381 30.4853041427879 878.329495317074 
! Port Impedance         50               0                50               0                
19                             0.223368683559893 11.6649845749012 0.924880893513751 -80.5881061437225 0.924880893513752 -80.5881061437225 0.223478841056526 11.9284034728533 
! Gamma         31.3955013441442 924.769481316286 31.9583540920281 926.894486551666 
! Port Impedance         50               0                50               0                
20                             0.224716413534266 7.82833277391225 0.92196564574026 -84.679274080178 0.921965645740259 -84.679274080178 0.224836910792204 8.10919740897187 
! Gamma         32.8436712365891 973.218378362186 33.4280673281174 975.4422966953   
! Port Impedance         50               0                50               0                
21                             0.224921960664646 4.01185170185888 0.919295054870409 -88.7648955336372 0.919295054870408 -88.7648955336372 0.225052879765567 4.31077582095957 
! Gamma         34.2877071774444 1021.65244620692 34.8934746948652 1023.97441401451 
! Port Impedance         50               0                50               0                
22                             0.223997697648813 0.216138397494894 0.916871688044079 -92.8472439362987 0.91687168804408 -92.8472439362987 0.224139057184116 0.533788136602661 
! Gamma         35.7268773818021 1070.0731104069  36.3538047999067 1072.49231766574 
! Port Impedance         50               0                50               0                
23                             0.221958918024058 -3.5579497354788 0.914693332065587 -96.9285706833747 0.914693332065587 -96.9285706833747 0.222110669422947 -3.22085046902904 
! Gamma         37.1606187601574 1118.48176444653 37.8084627896225 1120.9974550884  
! Port Impedance         50               0                50               0                
24                             0.21882381840412 -7.30910383958785 0.91275322652711 -101.01106840486 0.91275322652711 -101.01106840486 0.218985842145101 -6.95176689563545 
! Gamma         38.5885164389765 1166.87975410856 39.2570091138059 1169.49122517606 
! Port Impedance         50               0                50               0                
25                             0.214613589871855 -11.0353488398433 0.911040325441541 -105.096836191705 0.911040325441542 -105.096836191705 0.214785691796104 -10.6569139822327 
! Gamma         40.0102840222566 1215.26836636779 40.6991389496404 1217.97496642628 
! Port Impedance         50               0                50               0                
26                             0.209352608443783 -14.7337874295832 0.909539587471793 -109.187846748663 0.909539587471793 -109.187846748663 0.209534516460503 -14.3333127377833 
! Gamma         41.4257450093852 1263.64882205357 42.1346628365008 1266.44994906214 
! Port Impedance         50               0                50               0                
27                             0.203068714327164 -18.4002788229616 0.908232297042402 -113.285915522646 0.908232297042402 -113.285915522646 0.203260075907372 -17.9767288087024 
! Gamma         42.8348156954972 1312.02227165817 43.5634887874582 1314.91737042046 
! Port Impedance         50               0                50               0                
28                             0.195793570416142 -22.0290174033954 0.907096420038954 -117.39267195701 0.907096420038954 -117.39267195701 0.19599395142125 -21.5812481021224 
! Gamma         44.2374896496117 1360.38979352955 44.9856060957284 1363.37835293459 
! Port Impedance         50               0                50               0                
29                             0.187563092888301 -25.6119581176734 0.906106998384433 -121.509533118878 0.906106998384432 -121.509533118878 0.187771978508394 -25.1386981105965 
! Gamma         45.6338238917189 1408.75239397562 46.4010708490275 1411.83394407456 
! Port Impedance         50               0                50               0                
30                             0.178417951773268 -29.1380044738293 0.905236587596368 -125.637680064239 0.905236587596367 -125.637680064239 0.178634750688559 -28.6378303734293 
! Gamma         47.0239266928155 1457.11100876329 47.8099931625983 1460.28511782461 
! Port Impedance         50               0                50               0                
31                             0.1684041501305  -32.5918212146477 0.904455740303201 -129.778037380599 0.904455740303201 -129.778037380599 0.168628203572226 -32.0631254758725 
! Gamma         48.4079469502499 1505.46650566059 49.212526042487  1508.73277725998 
! Port Impedance         50               0                50               0                
32                             0.157573710515889 -35.9520374107083 0.90373353691373 -133.931256445802 0.903733536913729 -133.931256445802 0.15780430880227 -35.3929854070308 
! Gamma         49.7860650271894 1553.81968771037 50.6088557695    1557.17775786567 
! Port Impedance         50               0                50               0                
33                             0.145985537387146 -39.188426695145 0.903038161984044 -138.097702973571 0.903038161984046 -138.097702973571 0.146221948047478 -38.5968986913688 
! Gamma         51.1584849273726 1602.17129695957 51.9991936904682 1605.62083140394 
! Port Impedance         50               0                50               0                
34                             0.133706603116623 -42.2573039220298 0.902337521649929 -142.277449445259 0.902337521649928 -142.277449445259 0.133948117440686 -41.6308158902356 
! Gamma         52.5254276836664 1650.52201845892 53.3837692662645 1654.06271002884 
! Port Impedance         50               0                50               0                
35                             0.120813769848521 -45.093668323105 0.901599893834815 -146.470272988876 0.901599893834815 -146.470272988876 0.121059779622123 -44.4292643037319 
! Gamma         53.8871258149144 1698.87248438777 54.762824240281  1702.5040505913  
! Port Impedance         50               0                50               0                
36                             0.107396920961824 -47.597090066048 0.900794599133605 -150.675659200193 0.900794599133606 -150.675659200193 0.107647046468468 -46.8912011179814 
! Gamma         55.2438187293358 1747.22327816723 56.1366078041918 1750.94545887638 
! Port Impedance         50               0                50               0                
37                             0.093564930466317 -49.6047964831595 0.899892676559254 -154.892812266895 0.899892676559254 -154.892812266895 0.0938192388030939 -48.853081214955 
! Gamma         56.595748952113  1795.57493850582 57.5053726197761 1799.3874938356  
! Port Impedance         50               0                50               0                
38                             0.0794582017056564 -50.8366139303823 0.898867545131991 -159.120671585546 0.898867545131991 -159.120671585546 0.0797175888087424 -50.033891143565 
! Gamma         57.9431590648603 1843.92796326999 58.8693715878637 1847.83067161683 
! Port Impedance         50               0                50               0                
39                             0.0652778016529447 -50.7728264284293 0.89769562989727 -163.357934842091 0.897695629897271 -163.357934842091 0.0655446678737581 -49.9136394920074 
! Gamma         59.2862892587959 1892.28281319876 60.2288552612189 1896.27546943274 
! Port Impedance         50               0                50               0                
40                             0.0513613646967082 -48.3594028482491 0.89635692975777 -167.603087277164 0.896356929757768 -167.603087277164 0.0516407170515973 -47.4417648484502 
! Gamma         60.6253753928338 1940.63991536202 61.5840698021051 1944.72232917731 
! Port Impedance         50               0                50               0                
41                             0.0384065937524974 -41.2678342324988 0.89483550472286 -171.854436589721 0.894835504722861 -171.854436589721 0.0387067747970518 -40.3124432468176 
! Gamma         61.9606475150289 1988.99966642536 62.9352553969888 1993.17166083474 
! Port Impedance         50               0                50               0                
42                             0.0281572261906564 -24.568529987196 0.89311986197574 -176.110152670581 0.89311986197574 -176.110152670581 0.0284808711906005 -23.6982100112129 
! Gamma         63.2923287280126 2037.36243564709 64.2826450642045 2041.6238456226  
! Port Impedance         50               0                50               0                
43                             0.024504067930542 5.11229627724745 0.891203223522251 179.631688886647 0.891203223522251 179.631688886647 0.0248008919835953 5.65237899704323 
! Gamma         64.6206343775432 2085.72856768227 65.6264637795471 2090.07923889676 
! Port Impedance         50               0                50               0                
44                             0.0299269054330914 32.3817387580925 0.889083662937313 175.373060744929 0.889083662937312 175.373060744929 0.0301331138378311 32.7914843397597 
! Gamma         65.945771486377  2134.0983850893  66.9669278795541 2138.53817280958 
! Port Impedance         50               0                50               0                
45                             0.0408003952548664 46.3375609074932 0.886764104542421 171.115936640227 0.88676410454242 171.115936640227 0.0409460851557812 46.8617353775205 
! Gamma         67.2679384020472 2182.47219068069 68.3042446705248 2187.00095875476 
! Port Impedance         50               0                50               0                
46                             0.0536940098300219 52.0675924842722 0.884252184773042 166.862244510946 0.884252184773042 166.862244510946 0.0538199167011009 52.7232472846068 
! Gamma         68.5873246124067 2230.85026962492 69.6386122272476 2235.46788958067 
! Port Impedance         50               0                50               0                
47                             0.0672018663377586 53.8336953132889 0.881559982011011 162.613821380901 0.881559982011011 162.613821380901 0.0673325832607189 54.5999385318809 
! Gamma         69.9041106955867 2279.23289137716 70.9702193357431 2283.9392415868  
! Port Impedance         50               0                50               0                
48                             0.0807474686619459 53.5713985379287 0.878703627221997 158.372371348746 0.878703627221998 158.372371348746 0.0808981871635856 54.4325130738369 
! Gamma         71.2184683842123 2327.62031138427 72.2992455466058 2332.41527635973 
! Port Impedance         50               0                50               0                
49                             0.0940421050490757 52.1712779611022 0.875702812872618 154.139427882656 0.875702812872618 154.139427882656 0.0942235197753468 53.1182473573785 
! Gamma         72.5305607106667 2376.01277268145 73.6258613223516 2380.8962423975  
! Port Impedance         50               0                50               0                
50                             0.106910740672104 50.0820317055737 0.872580221427517 149.916321395407 0.872580221427517 149.916321395407 0.107131356551165 51.1103223826332 
! Gamma         73.8405422226028 2424.41050727428 74.9502282562828 2429.38237660137 
! Port Impedance         50               0                50               0                
51                             0.119231305792451 47.5502320430629 0.869360897016264 145.70415283623  0.869360897016263 145.70415283623  0.119498539086336 48.6581855114335 
! Gamma         75.1485592432138 2472.81373741139 76.2724993425519 2477.87390558347 
! Port Impedance         50               0                50               0                
52                             0.130910709468633 44.7214972996281 0.866071584550781 141.503773752957 0.866071584550779 141.503773752957 0.131231455046226 45.9093868158669 
! Gamma         76.454750175903  2521.22267671342 77.5928192854547 2526.37104686862 
! Port Impedance         50               0                50               0                
53                             0.141874226762619 41.6869845040631 0.862740059750523 137.315773018946 0.862740059750523 137.315773018946 0.142255177465418 42.9564780853453 
! Gamma         77.7592458247444 2569.63753118462 78.9113248369442 2574.87400995642 
! Port Impedance         50               0                50               0                
54                             0.152060299257478 38.5065076653685 0.859394471457275 133.140470166901 0.859394471457276 133.140470166901 0.152508143665821 39.8603644589696 
! Gamma         79.0621697415611 2618.05850012248 80.2281451551921 2623.38299727226 
! Port Impedance         50               0                50               0                
55                             0.161417719157886 35.2208407780419 0.856062714548599 128.977915054336 0.856062714548599 128.977915054336 0.161939277371343 36.6627442834026 
! Gamma         80.363638574036  2666.48577691965 81.5434021647272 2671.89820500382 
! Port Impedance         50               0                50               0                
56                             0.169903933885493 31.8586555618813 0.852771848133475 124.827893418687 0.852771848133474 124.827893418687 0.170506261509114 33.3931312047927 
! Gamma         81.6637624234192 2714.91954978465 82.8572109301082 2720.41982387524 
! Port Impedance         50               0                50               0                
57                             0.177483907139205 28.4406340325895 0.849547569825171 120.689937747608 0.849547569825171 120.689937747608 0.17817438392879 30.0730224266744 
! Gamma         82.9626451955865 2763.36000238088 84.1696800239159 2768.9480398109  
! Port Impedance         50               0                50               0                
58                             0.184129272698816 24.9820160086869 0.84641375309811 116.563342815282 0.84641375309811 116.563342815282 0.184915685604486 26.7184862866171 
! Gamma         84.2603849522866 2811.80731439518 85.4809118900179 2817.48303453131 
! Port Impedance         50               0                50               0                
59                             0.189817655134976 21.4942414363865 0.843392051295608 112.447185197773 0.843392051295607 112.447185197773 0.190708282132184 23.3418364657285 
! Gamma         85.5570742505509 2860.26166204655 86.791003200208  2866.02498608966 
! Port Impedance         50               0                50               0                
60                             0.194532098019461 17.9860497852192 0.840501568956445 108.340346082333 0.840501568956445 108.340346082333 0.19553579750668 19.9527596161156 
! Gamma         86.8528004736311 2908.72321852128 88.1000451995361 2914.57406933645 
! Port Impedance         50               0                50               0                
61                             0.19826057325584 14.4642438909283 0.837758598857235 104.241536712474 0.837758598857235 104.241536712473 0.199386883154806 16.5591067839317 
! Gamma         88.1476461512857 2957.19215438317 89.4081240395171 2963.13045633747 
! Port Impedance         50               0                50               0                
62                             0.20099556145859 10.9342415871671 0.835176421591711 100.149325862228 0.835176421591711 100.149325862228 0.202254812136138 13.1674742584625 
! Gamma         89.4416892673083 3005.66863791127 90.7153211019091 3011.69431674892 
! Port Impedance         50               0                50               0                
63                             0.20273370113929 7.40049129629297 0.832765163573323 96.0621687892997 0.832765163573323 96.0621687892997 0.204137146743624 9.78365199386002 
! Gamma         90.7350035494614 3054.15283541328 92.0217133015837 3060.2658181315  
! Port Impedance         50               0                50               0                
64                             0.203475507629147 3.86680053780141 0.830531709018428 91.9784371823393 0.830531709018428 91.9784371823393 0.205035481338963 6.41299057835231 
! Gamma         92.0276587531835 3102.64491149996 93.3273733822308 3108.8451262412  
! Port Impedance         50               0                50               0                
65                             0.203225163504194 0.33661043089792 0.828479661606656 87.8964496750155 0.828479661606656 87.8964496750155 0.204955263609023 3.06072208357984 
! Gamma         93.3197209242527 3151.14502932294 94.6323701920186 3157.43240529139 
! Port Impedance         50               0                50               0                
66                             0.201990381707522 -3.18675990102479 0.826609352054652 83.814502550183  0.826609352054652 83.814502550183  0.203905697467781 -0.267738533767093 
! Gamma         94.6112526502863 3199.65335078313 95.9367689482375 3206.02781815826 
! Port Impedance         50               0                50               0                
67                             0.199782341443001 -6.69987996318561 0.824917888614313 79.7309002962662 0.824917888614313 79.7309002962662 0.201899730550988 -3.56648893556217 
! Gamma         95.9023132992029 3248.17003671689 97.2406314858097 3254.63152659085 
! Port Impedance         50               0                50               0                
68                             0.196615695581599 -10.1989683104544 0.823399248409632 75.6439857001728 0.823399248409632 75.6439857001728 0.198954129077157 -6.82880997010037 
! Gamma         97.1929592426402 3296.69524706367 98.5440164896668 3303.24369137061 
! Port Impedance         50               0                50               0                
69                             0.192508647014086 -13.6796286420886 0.822044408448187 71.5521691691891 0.822044408448188 71.5521691691891 0.195089643206525 -10.0467871647051 
! Gamma         98.4832440653848 3345.22914099817 99.846979718969  3351.86447247241 
! Port Impedance         50               0                50               0                
70                             0.187483090510747 -17.136539852419 0.820841515942392 67.4539569679237 0.820841515942392 67.4539569679237 0.190331267591741 -13.2108533307904 
! Gamma         99.7732187639268 3393.77187706219 101.149574210666 3400.49402918415 
! Port Impedance         50               0                50               0                
71                             0.181564816427123 -20.5630710505376 0.819776098178086 63.3479780368228 0.819776098178086 63.3479780368228 0.184708605195491 -16.3092125417259 
! Gamma         101.062931931729 3442.32361326988 102.451850475867 3449.13252023132 
! Port Impedance         50               0                50               0                
72                             0.174783773634139 -23.9507799294548 0.818831312465993 59.2330090286005 0.818831312465993 59.2330090286005 0.178256348937959 -19.3270896365058 
! Gamma         102.352429932135 3490.88450720465 103.753856681175 3497.78010386769 
! Port Impedance         50               0                50               0                
73                             0.167174392166586 -27.2887315075681 0.81798823664321 55.107997169054  0.81798823664321 55.1079971690539 0.171014907181731 -22.2457239368194 
! Gamma         103.641757060897 3539.45471609528 105.055638817914 3546.43693796784 
! Port Impedance         50               0                50               0                
74                             0.158775972855948 -30.5625380326328 0.817226200106146 50.9720805081886 0.817226200106146 50.9720805081886 0.163031218772489 -25.0409856747737 
! Gamma         104.93095569726  3588.03439689449 106.357240862588 3595.10318009965 
! Port Impedance         50               0                50               0                
75                             0.149633164539064 -33.7529580912942 0.816523154413566 46.8246051084661 0.816523154413566 46.8246051084661 0.154359836997222 -27.6814297965251 
! Gamma         106.22006644569  3636.6237063329  107.658704923067 3643.77898759208 
! Port Impedance         50               0                50               0                
76                             0.139796574752353 -36.8337811918955 0.815856081131339 42.665138695676  0.815856081131338 42.6651386956761 0.145064419308199 -30.1254996996021 
! Gamma         107.509128266438 3685.22280097678 108.960071378343 3692.46451758597 
! Port Impedance         50               0                50               0                
77                             0.129323608296899 -39.7685176958982 0.815201432832916 38.4934803055553 0.815201432832917 38.4934803055553 0.135219858947695 -32.3174296342117 
! Gamma         108.798178599458 3733.83183727737 110.261379006444 3741.15992708579 
! Port Impedance         50               0                50               0                
78                             0.118279723534696 -42.505017101597 0.81453560110368 34.309665488317  0.81453560110368 34.309665488317  0.124915468484964 -34.1811338837432 
! Gamma         110.087253477001 3782.45097159893 111.562665102548 3789.86537300376 
! Port Impedance         50               0                50               0                
79                             0.106740492312296 -44.9663382867334 0.813835403173673 30.1139666903445 0.813835403173673 30.1139666903445 0.114259933331334 -35.6109711313836 
! Gamma         111.37638762994  3831.08036026323 112.863965593096 3838.58101219109 
! Port Impedance         50               0                50               0                
80                             0.0947952754323694 -47.0344997892732 0.81307857658248 25.9068885261711 0.81307857658248 25.9068885261711 0.103389301046454 -36.4577245420162 
! Gamma         112.665614586725 3879.7201595725  114.165315136463 3887.30700147108 
! Port Impedance         50               0                50               0                
81                             0.0825543161555696 -48.5199358239549 0.812244269264944 21.6891577743357 0.812244269264944 21.6891577743358 0.09248022578908 -36.507651624544 
! Gamma         113.9549667642   3928.37052583789 115.466747219795 3936.04349766047 
! Port Impedance         50               0                50               0                
82                             0.070163543770122 -49.1004734365293 0.811313510862397 17.4617080845496 0.811313510862398 17.4617080845496 0.0817722050656752 -35.4531725083327 
! Gamma         115.244475550719 3977.03161539977 116.768294247578 3984.79065760186 
! Port Impedance         50               0                50               0                
83                             0.0578381865869895 -48.1914846111768 0.810269650106212 13.2256595619429 0.81026965010621 13.2256595619428 0.0716042452470028 -32.8601434849976 
! Gamma         116.53417138768  4025.70358464075 118.069987624509 4033.54863817166 
! Port Impedance         50               0                50               0                