! Touchstone file exported from HFSS 2024.2.0
!        File:           C:/Users/vaintrug/Documents/Ansoft_Workspace/Comparaison_Calculs_HFSS/1_VarPort.aedt
!        Generated:      03:22:18 PM Jan 21, 2025
!        Design:         1_NoDeembed_FacePortFree
!        Project:        1_VarPort
!        Setup:          Setup1
!        Solution:       Sweep
!
! Variables:
!        $Lenght = 2000um
!        $PortSize = 200um
!        Gap = 30um
!        Th = 2um
!        X_centralStrip = 20um
!        X_masse = 200um
!        Y_Sub = 2mm
!        Z_Box = 400um
!        Z_Sub = 200um
!
# GHz S MA R 50.000000
! Terminal data exported
! Port[1] = 1
! Port[2] = 2
1                              0.0279980587809806 61.4739231455664 0.985400582948751 -5.90341449637136 0.985400582948751 -5.90341449637136 0.0280047379981556 61.4404168781284 
! Gamma         5.72345672418037 49.6381603691585 6.00844347354525 50.3100949352185 
! Port Impedance         50               0                50               0                
2                              0.0499666990501596 66.9270127847328 0.9818444705621  -11.6698567159155 0.9818444705621  -11.6698567159155 0.0499740495034942 66.8495586271994 
! Gamma         7.35920754844854 98.0904113828444 7.87948650233825 99.1269395272876 
! Port Impedance         50               0                50               0                
3                              0.072161192118858 65.8312305694518 0.978221878665535 -17.4375238721821 0.978221878665536 -17.4375238721821 0.0721642210889803 65.7152257459122 
! Gamma         8.70902809347016 146.613733076137 9.34705932004353 147.963122524522 
! Port Impedance         50               0                50               0                
4                              0.0938094103957702 62.5730740685154 0.974169903769396 -23.1955521515965 0.974169903769395 -23.1955521515965 0.0938050585765095 62.4192751591103 
! Gamma         10.0016740174183 195.19677109008  10.7108619780101 196.869930941447 
! Port Impedance         50               0                50               0                
5                              0.114467953754286 58.3821582651795 0.969675569139606 -28.9344573645301 0.969675569139607 -28.9344573645301 0.114453389515602 58.1903829217007 
! Gamma         11.2936768797068 243.804227212321 12.0581200236675 245.812646837085 
! Port Impedance         50               0                50               0                
6                              0.133836525438625 53.7279534425979 0.964808127011517 -34.6477734302554 0.964808127011516 -34.6477734302554 0.13380904470068 53.497782006542  
! Gamma         12.6009804217134 292.416559501124 13.4158823179972 294.767106026333 
! Port Impedance         50               0                50               0                
7                              0.151689182736621 48.8266003677165 0.959665779850956 -40.3311983781943 0.959665779850955 -40.3311983781943 0.151646241792574 48.5574991137952 
! Gamma         13.928045067676  341.022818967501 14.7928744908084 343.718846466546 
! Port Impedance         50               0                50               0                
8                              0.167850417533767 43.7909904655194 0.954357904128306 -45.982220025063 0.954357904128306 -45.9822200250631 0.167789656932445 43.4823337862303 
! Gamma         15.275240751504  389.616397357112 16.1911545815772 392.658960450446 
! Port Impedance         50               0                50               0                
9                              0.182184733765616 38.6853945298236 0.948995690258928 -51.5999215827695 0.948995690258929 -51.5999215827695 0.1821039892451  38.3364652400573 
! Gamma         16.6412173598352 438.19312020247  17.6099876641787 441.581783975013 
! Port Impedance         50               0                50               0                
10                             0.194590422086287 33.548554228628  0.94368583206327 -57.1848242261533 0.94368583206327 -57.1848242261533 0.194487728339246 33.1585374114537 
! Gamma         18.0238437572081 486.750347285994 19.0473722762993 490.483701577834 
! Port Impedance         50               0                50               0                
11                             0.204994709077675 28.4046528715479 0.938525939149605 -62.7387214002085 0.938525939149605 -62.7387214002085 0.204868300715785 27.9726262530709 
! Gamma         19.4206522688367 535.286501247682 20.5007382367633 539.36249496106  
! Port Impedance         50               0                50               0                
12                             0.213349475741457 23.2690680026326 0.933601246091556 -68.2644959064795 0.933601246091554 -68.2644959064795 0.213197788115159 22.793989151297  
! Gamma         20.829079579867  583.800788763816 21.9673076528838 588.216956339326 
! Port Impedance         50               0                50               0                
13                             0.219627403229408 18.1516723287416 0.928982397212059 -73.7659234178658 0.928982397212059 -73.7659234178658 0.219449074477005 17.6323620580388 
! Gamma         22.2466093877837 632.293015383516 23.444299521851  637.046636217767 
! Port Impedance         50               0                50               0                
14                             0.223818610570652 13.0589036592776 0.924724124932694 -79.2474693241534 0.924724124932694 -79.2474693241534 0.223612485276996 12.4940245929392 
! Gamma         23.6708602665118 680.763449844771 24.9290517073968 685.851664078543 
! Port Impedance         50               0                50               0                
15                             0.225927885271037 7.99518962490874 0.920864649738867 -84.7140855993946 0.920864649738866 -84.7140855993946 0.225693019291278 7.38321847325295 
! Gamma         25.099639206356  729.212717722193 26.4190941580621 734.6326118357   
! Port Impedance         50               0                50               0                
16                             0.225972585633018 2.96403401862969 0.917425644669619 -90.171012785316 0.917425644669618 -90.171012785316 0.225708250850254 2.30322547541653 
! Gamma         26.5309717289569 777.641714578312 27.9121906134978 783.390385193857 
! Port Impedance         50               0                50               0                
17                             0.223981253480935 -2.03105486923306 0.91441263289192 -95.6235904922777 0.91441263289192 -95.6235904922777 0.223686940453777 -2.74271552225051 
! Gamma         27.9631154943352 826.051533741893 29.4063587528901 832.12613499727  
! Port Impedance         50               0                50               0                
18                             0.219992936292406 -6.98566701582911 0.911815719781957 -101.077078462523 0.911815719781956 -101.077078462523 0.219668351729727 -7.75052690976987 
! Gamma         29.3945618978632 874.443406077095 30.8998752441768 880.841184236454 
! Port Impedance         50               0                50               0                
19                             0.214057185911534 -11.8935094015511 0.909610595606396 -106.536489373999 0.909610595606395 -106.536489373999 0.21370224052895 -12.7143330511108 
! Gamma         30.8240292019255 922.818650070195 32.3912701963095 929.536968139517 
! Port Impedance         50               0                50               0                
20                             0.206234677524611 -16.745203797174 0.907759777128861 -112.006434327256 0.90775977712886 -112.006434327256 0.205849457725569 -17.6252897646238 
! Gamma         32.2504498262305 971.178630968473 33.8793143697226 978.214985273512 
! Port Impedance         50               0                50               0                
21                             0.196598382757694 -21.5266636033224 0.906214081915008 -117.490982121907 0.906214081915007 -117.490982121907 0.196183096186973 -22.4700079782487 
! Gamma         33.672953896998  1019.52472792052 35.3630017141204 1026.87675835468 
! Port Impedance         50               0                50               0                
22                             0.185235238257361 -26.2167175636918 0.9049143457987  -122.993534037619 0.904914345798701 -122.993534037619 0.18479011748609 -27.2282484101939 
! Gamma         35.0908506844618 1067.85830814305 36.8415291614427 1075.52380343598 
! Port Impedance         50               0                50               0                
23                             0.172248294656428 -30.7833805688068 0.903793399609511 -128.51671658098 0.903793399609511 -128.51671658098 0.171773432890414 -31.8693028821857 
! Gamma         36.5036091414575 1116.18070716741 38.3142752039764 1124.1576061784  
! Port Impedance         50               0                50               0                
24                             0.157759448409893 -35.1776141402384 0.902778315311886 -134.062295457367 0.902778315311886 -134.062295457367 0.157254521558588 -36.3459315630534 
! Gamma         37.9108384785197 1164.49321420552 39.7807782971714 1172.77960424649 
! Port Impedance         50               0                50               0                
25                             0.14191314801299 -39.3221920747946 0.901792914232059 -139.631114632919 0.901792914232059 -139.631114632919 0.141376938415184 -40.5835181731483 
! Gamma         39.3122694366535 1212.79706190535 41.2407159080388 1221.39117476215 
! Port Impedance         50               0                50               0                
26                             0.124882183317846 -43.0903882829512 0.900760502578218 -145.223064640559 0.900760502578217 -145.223064640559 0.124311737611894 -44.459237223905 
! Gamma         40.7077366727508 1261.09341958579 42.6938847244346 1269.9936259323  
! Port Impedance         50               0                50               0                
27                             0.106878569504401 -46.2617379949221 0.899606764842813 -150.837083993386 0.899606764842813 -150.837083993386 0.106267635874699 -47.7585804477139 
! Gamma         42.0971625469094 1309.38338944388 44.1401823590523 1318.58819206917 
! Port Impedance         50               0                50               0                
28                             0.0881781507810609 -48.4207990731953 0.898262708739848 -156.471196699838 0.898262708739848 -156.471196699838 0.0875140919833595 -50.0750594423201 
! Gamma         43.4805424539845 1357.66800493909 45.5795907264624 1367.17603125769 
! Port Impedance         50               0                50               0                
29                             0.0691866610274642 -48.6963702536379 0.896667521834258 -162.122587312698 0.896667521834258 -162.122587312698 0.0684439590674862 -50.5483559313612 
! Gamma         44.8579317324396 1405.94823098064 47.0121611788688 1415.75822513735 
! Port Impedance         50               0                50               0                
30                             0.0506522995652955 -44.9962663507991 0.894771176637677 -167.787712819473 0.894771176637678 -167.787712819473 0.0497790674865907 -47.0763365861759 
! Gamma         46.2294341298147 1454.22496545995 48.4380013582754 1464.33578024    
! Port Impedance         50               0                50               0                
31                             0.0344865675396894 -31.700180201491 0.892536613492136 -173.462448113161 0.892536613492136 -173.462448113161 0.0333957695210498 -33.7987435973965 
! Gamma         47.5951917694332 1502.49904168867 49.8572637249662 1512.90963049275 
! Port Impedance         50               0                50               0                
32                             0.0264622837284214 0.864109406097122 0.889941343299921 -179.142259196818 0.889941343299921 -179.142259196818 0.0252587516009995 0.119056388774159 
! Gamma         48.9553764864566 1550.77123154848 51.2701356376676 1561.48064053284 
! Port Impedance         50               0                50               0                
33                             0.0332258605616659 34.9109083414037 0.886978345641652 175.177604174169 0.886978345641652 175.177604174169 0.0324136219955802 35.2146390227006 
! Gamma         50.3101824393407 1599.04224907154 52.6768308633329 1610.04960954502 
! Port Impedance         50               0                50               0                
34                             0.0486722519601599 49.4771620073606 0.883656189402565 169.501906459691 0.883656189402565 169.501906459691 0.0481742548663188 49.4391562060997 
! Gamma         51.6598198718577 1647.31275423274 54.0775823762599 1658.61727547765 
! Port Impedance         50               0                50               0                
35                             0.0665502500886309 53.7326986431812 0.879998365959149 163.83522588958  0.879998365959151 163.83522588958  0.0661893697441369 53.3126717688411 
! Gamma         53.0045098710815 1695.58335689419 55.4726363201047 1707.18431931886 
! Port Impedance         50               0                50               0                
36                             0.0847721148066836 53.7581466431549 0.876041890427995 158.181766471082 0.876041890427995 158.181766471082 0.0844581145781593 53.0584411541748 
! Gamma         54.3444800324695 1743.85462070111 56.8622469750507 1755.7513694883  
! Port Impedance         50               0                50               0                
37                             0.102557018696077 51.816251371139  0.871835284890924 152.545192157597 0.871835284890925 152.545192157597 0.102241621512389 50.9037327267054 
! Gamma         55.6799608990789 1792.12706692222 58.2466726200663 1804.31900609377 
! Port Impedance         50               0                50               0                
38                             0.119504952096171 48.8388502964196 0.867436100818936 146.928490931236 0.867436100818935 146.928490931236 0.119158206468995 47.7522085293517 
! Gamma         57.0111830703213 1840.40117813411 59.6261721601493 1852.88776506393 
! Port Impedance         50               0                50               0                
39                             0.135359463628824 45.2666056782474 0.862908161111557 141.333874003542 0.862908161111558 141.333874003542 0.134960202003454 44.0282094243165 
! Gamma         58.3383748913863 1888.67740171261 61.0010024230055 1901.4581421038  
! Port Impedance         50               0                50               0                
40                             0.149934817978332 41.3324668610522 0.858318704070978 135.762712615755 0.858318704070978 135.762712615755 0.149466482618645 39.9550808858938 
! Gamma         59.6617606220815 1936.9561531497  62.3714160076842 1950.03059640338 
! Port Impedance         50               0                50               0                
41                             0.163089001959385 37.170586074103  0.853735594733132 130.215512339557 0.853735594733132 130.215512339557 0.162537613770312 35.6609469005512 
! Gamma         60.9815590375306 1985.23781911576 63.7376596231645 1998.60555412999 
! Port Impedance         50               0                50               0                
42                             0.174711778572726 32.8635229765946 0.849224738381797 124.691922603025 0.849224738381798 124.691922603025 0.174064840151159 31.2242770901019 
! Gamma         62.2979823578402 2033.52276031684 65.0999728197787 2047.18341165682 
! Port Impedance         50               0                50               0                
43                             0.184718335561063 28.4648548182338 0.844847793191078 119.190777579045 0.844847793191078 119.190777579045 0.183964172114002 26.6956280812801 
! Gamma         63.6112354785511 2081.81131412252 66.4585870626076 2095.76453855435 
! Port Impedance         50               0                50               0                
44                             0.193045248356319 24.0109548635678 0.840660240005117 113.710163614938 0.840660240005117 113.710163614938 0.192172562450728 22.1089340041585 
! Gamma         64.9215154365158 2130.10379698478 67.8137250814982 2144.34928032818 
! Port Impedance         50               0                50               0                
45                             0.199647537856621 19.5276008323472 0.836709832344321 108.247508010881 0.836709832344321 108.247508010881 0.19864506693028 17.4878191029156 
! Gamma         66.2290110775791 2178.40050661788 69.1656004472596 2192.93796092971 
! Port Impedance         50               0                50               0                
46                             0.204496366866075 15.0339557081496 0.833035422220883 102.799684070869 0.833035422220883 102.799684070869 0.203352582162929 12.8493805528158 
! Gamma         67.5339028742003 2226.70172402161 70.5144173429144 2241.53088504253 
! Port Impedance         50               0                50               0                
47                             0.207577219781924 10.5451528342675 0.829666138736075 97.3631277763889 0.829666138736075 97.3631277763889 0.206280027509034 8.20662327841489 
! Gamma         68.8363628834282 2275.00771528914 71.8603704797481 2290.12834016197 
! Port Impedance         50               0                50               0                
48                             0.208888528854225 6.0741271653656  0.826620886790438 91.9339620516314 0.826620886790437 91.9339620516314 0.207424942958741 3.5701592393559  
! Gamma         70.1365548062144 2323.31873323819 73.2036451351509 2338.7305984597  
! Port Impedance         50               0                50               0                
49                             0.20844075344805 1.63305593803342 0.823908131356439 86.508125215707  0.82390813135644 86.508125215707  0.206796510153399 -1.05048554732557 
! Gamma         71.4346341164259 2371.63501891399 74.5444172954356 2387.33791849218 
! Port Impedance         50               0                50               0                
50                             0.206255929682521 -2.76536013195671 0.821525936927917 81.0815007962153 0.821525936927917 81.0815007962153 0.204415008669978 -5.6457418751345 
! Gamma         72.73074826817   2419.95680289525 75.8828538573189 2435.95054672629 
! Port Impedance         50               0                50               0                
51                             0.202367707910952 -7.10659935386904 0.819462239666349 75.6500462576036 0.819462239666349 75.6500462576036 0.20031171355101 -10.2048875793554 
! Gamma         74.02503694029   2468.28430651582 77.2191129017806 2484.56871890909 
! Port Impedance         50               0                50               0                
52                             0.196821895031862 -11.3728357406257 0.817695339398736 70.2099184131086 0.817695339398736 70.2099184131085 0.194529231319975 -14.7148083867721 
! Gamma         75.317632320354  2516.61774292276 78.5533439990412 2533.19266130219 
! Port Impedance         50               0                50               0                
53                             0.189677527334178 -15.5410634194641 0.816194607753173 64.7575932808211 0.816194607753173 64.7575932808211 0.187122267847346 -19.1584501762814 
! Gamma         76.6086594090379 2564.95731804587 79.8856885503987 2581.82259179136 
! Port Impedance         50               0                50               0                
54                             0.18100852884699 -19.5805313473558 0.814921415475012 59.289977946815  0.814921415475011 59.289977946815  0.178158830158903 -23.5127014565167 
! Gamma         77.8982363437484 2613.30323144748 81.216280145241  2630.45872085943 
! Port Impedance         50               0                50               0                
55                             0.170906079599169 -23.4490138237186 0.813830284803245 53.8045116834557 0.813830284803245 53.8045116834557 0.167721898835539 -27.7452770859028 
! Gamma         79.1864747324659 2661.6556770945  82.5452449305344 2679.10125248847 
! Port Impedance         50               0                50               0                
56                             0.159481967224489 -27.0871109422991 0.81287027039268 48.2992532071446 0.812870270392681 48.2992532071446 0.155911695894041 -31.8098425441697 
! Gamma         80.4734799838051 2710.01484404513 83.872701987929  2727.75038493178 
! Port Impedance         50               0                50               0                
57                             0.146873504975989 -30.4091489173527 0.811986563968077 42.7729506214222 0.811986563968077 42.7729506214222 0.142848875215526 -35.6379470909039 
! Gamma         81.7593516427823 2758.3809170446  85.1987637094028 2776.40631141697 
! Port Impedance         50               0                50               0                
58                             0.133251245183005 -33.2880536418224 0.811122303750215 37.2250904580532 0.811122303750215 37.2250904580532 0.128679420251972 -39.1249157382583 
! Gamma         83.044183721738  2806.75407708395 86.523536168264  2825.06922076679 
! Port Impedance         50               0                50               0                
59                             0.118832098298327 -35.5292554938142 0.810220550506513 31.6559223315023 0.810220550506513 31.6559223315024 0.113583107413231 -42.1036839641429 
! Gamma         84.3280650206075 2855.13450185913 87.8471194816913 2873.73929796542 
! Port Impedance         50               0                50               0                
60                             0.10390350665996 -36.8243213440029 0.809226369814826 26.0664562148945 0.809226369814826 26.0664562148945 0.0977900741870327 -44.2930652805387 
! Gamma         85.6110794392731 2903.52236621611 89.169608166252  2922.41672463172 
! Port Impedance         50               0                50               0                
61                             0.0888711065092495 -36.6680026223168 0.808088937641655 20.4584302664687 0.808088937641654 20.4584302664687 0.0816172924798331 -45.188278838929 
! Gamma         86.8933062802346 2951.91784251332 90.4910914795012 2971.10167946489 
! Port Impedance         50               0                50               0                
62                             0.0743566384353794 -34.21959135124  0.806763567185669 14.834248483794  0.806763567185669 14.834248483794  0.0655581641976602 -43.8151039907   
! Gamma         88.1748205392765 3000.32110096239 91.8116537495523 3019.79433862884 
! Port Impedance         50               0                50               0                
63                             0.0613932715704326 -28.1489288091881 0.805213542922565 9.19688916172566 0.805213542922564 9.19688916172566 0.0505241188969223 -38.1833396836521 
! Gamma         89.4556931811222 3048.73230992566 93.1313746890322 3068.49487609095 
! Port Impedance         50               0                50               0                
64                             0.0517192171601702 -16.8998043184532 0.803411646241802 3.54978706483586 0.803411646241802 3.54978706483586 0.0384885083795543 -24.5404865552258 
! Gamma         90.7359914041167 3097.15163616737 94.4503296974722 3117.2034639232  
! Port Impedance         50               0                50               0                
65                             0.0476973482465573 -0.711970837937002 0.801341267985299 -2.10330584699539 0.801341267985299 -2.10330584699539 0.0333469638000079 -0.409245090430656 
! Gamma         92.0157788938887 3145.57924509514 95.7685901461227 3165.92027256488 
! Port Impedance         50               0                50               0                
66                             0.0506947109734062 15.7767850609082 0.798997026796034 -7.75847459188562 0.798997026796034 -7.75847459188562 0.0380005975322687 23.9091321261667 
! Gamma         93.2951160581332 3194.01530095167 97.0862236490454 3214.64547105997 
! Port Impedance         50               0                50               0                
67                             0.0594271000013461 27.5900334543368 0.796384846390813 -13.4118024274326 0.796384846390813 -13.4118024274326 0.0494806044879562 37.8119124856073 
! Gamma         94.5740602542135 3242.45996699609 98.4032943194744 3263.37922726268 
! Port Impedance         50               0                50               0                
68                             0.071450231527417 34.1321845061608 0.793521485692916 -19.0595307831404 0.793521485692915 -19.0595307831404 0.0637884095363908 43.6179422611895 
! Gamma         95.8526659993003 3290.9134056646  99.7198630107504 3312.12170801462 
! Port Impedance         50               0                50               0                
69                             0.0849241955546893 36.9161063738033 0.790433557859752 -24.6982095437556 0.790433557859752 -24.6982095437556 0.0789068353764781 45.1182165247138 
! Gamma         97.1309851696433 3339.37577870124 101.035987546442 3360.87307930703 
! Port Impedance         50               0                50               0                
70                             0.0987645747974046 37.3202685780115 0.787156112021508 -30.3248301923739 0.787156112021509 -30.3248301923739 0.0939207575932272 44.3364341788614 
! Gamma         98.4090671911333 3387.84724728127 102.351722930363 3409.63350641464 
! Port Impedance         50               0                50               0                
71                             0.112335894562272 36.2273063113524 0.783730880226233 -35.9369357410312 0.783730880226233 -35.9369357410312 0.108349607843615 42.2631784703418 
! Gamma         99.6869592109381 3436.32797211461 103.667121550385 3458.40315401958 
! Port Impedance         50               0                50               0                
72                             0.125239019322683 34.1685231726319 0.780204308595381 -41.532703188701 0.780204308595381 -41.532703188701 0.12189715447923 39.4115136569594 
! Gamma         100.964706265661 3484.81811353856 104.982233365133 3507.18218631822 
! Port Impedance         50               0                50               0                
73                             0.13720397082853 31.4680302274902 0.776625495168018 -47.1109962494059 0.776625495168018 -47.1109962494059 0.13435880851811 36.0675503873588 
! Gamma         102.242351432297 3533.31783160287 106.297106080109 3555.97076711701 
! Port Impedance         50               0                50               0                
74                             0.148037803662664 28.3303573809991 0.77304414849609 -52.6713879950935 0.773044148496089 -52.6713879950935 0.145583797075685 32.4019422299856 
! Gamma         103.519935975592 3581.8272861256  107.611785311229 3604.76905989853 
! Port Impedance         50               0                50               0                
75                             0.157598207763704 24.8895462022646 0.769508663651641 -58.2141547405029 0.76950866365164 -58.2141547405028 0.155457865957968 28.5225302818271 
! Gamma         104.797499479279 3630.34663676972 108.9263147401   3653.57722791212 
! Port Impedance         50               0                50               0                
76                             0.165779205581833 21.2367597056225 0.766064389517355 -63.7402437797789 0.766064389517355 -63.7402437797789 0.163894366668842 24.5009725299174 
! Gamma         106.075079974268 3678.87604308231 110.240736254981 3702.39543421558 
! Port Impedance         50               0                50               0                
77                             0.172502774814349 17.4362794421901 0.762752136890646 -69.2512184448894 0.762752136890645 -69.2512184448894 0.170829071552322 20.3871335968487 
! Gamma         107.352714050934 3727.41566455786 111.555090085327 3751.22384174151 
! Port Impedance         50               0                50               0                
78                             0.177713553444158 13.5351485352753 0.759606954181162 -74.7491843954149 0.759606954181162 -74.7491843954149 0.176216810670219 16.2173646658618 
! Gamma         108.630436972717 3775.96566065653 112.869414924895 3800.06261333612 
! Port Impedance         50               0                50               0                
79                             0.181375283192094 9.5692565259294  0.756657178708719 -80.2367011520779 0.756657178708719 -80.2367011520779 0.180029118150493 12.0195792292664 
! Gamma         109.908282772501 3824.52619085306 114.183748048279 3848.91191179875 
! Port Impedance         50               0                50               0                
80                             0.183468343914103 5.56739106271281 0.753923757929122 -85.7166827147197 0.753923757929122 -85.7166827147197 0.182252539584893 7.81659037789145 
! Gamma         111.186284350082 3873.09741466471 115.498125416518 3897.77189992038 
! Port Impedance         50               0                50               0                
81                             0.18398806363566 1.55412287076897 0.751419826702414 -91.1922908058661 0.751419826702413 -91.1922908058661 0.182887456274568 3.62849871765475 
! Gamma         112.464473558296 3921.67949167375 116.812581778034 3946.64274050443 
! Port Impedance         50               0                50               0                
82                             0.182943651127805 -2.44795347579532 0.749150523329588 -96.6668239085526 0.749150523329589 -96.6668239085526 0.181947374008344 -0.525408620157404 
! Gamma         113.742881280834 3970.27258155116 118.127150760198 3995.52459640471 
! Port Impedance         50               0                50               0                
83                             0.180357679145118 -6.41627643146398 0.747113027572628 -102.143604944146 0.747113027572627 -102.143604944146 0.179458666265944 -4.62494506553806 
! Gamma         115.021537512196 4018.87684407831 119.441864955059 4044.41763053403 
! Port Impedance         50               0                50               0                