! Touchstone file exported from HFSS 2024.2.0
!        File:           C:/Users/vaintrug/Documents/Ansoft_Workspace/Comparaison_Calculs_HFSS/1_VarPort.aedt
!        Generated:      03:22:17 PM Jan 21, 2025
!        Design:         1_NoDeembed_FacePortFree
!        Project:        1_VarPort
!        Setup:          Setup1
!        Solution:       Sweep
!
! Variables:
!        $Lenght = 1500um
!        $PortSize = 270um
!        Gap = 30um
!        Th = 2um
!        X_centralStrip = 20um
!        X_masse = 200um
!        Y_Sub = 1.5mm
!        Z_Box = 400um
!        Z_Sub = 200um
!
# GHz S MA R 50.000000
! Terminal data exported
! Port[1] = 1
! Port[2] = 2
1                              0.0211011297911129 62.9740622295872 0.989091994014202 -4.43280216578199 0.989091994014202 -4.432802165782  0.021101032697003 62.9650887053268 
! Gamma         5.96655791302537 49.7852929110469 5.73198352663946 49.7347754602921 
! Port Impedance         50               0                50               0                
2                              0.0377751931300905 69.7535632233588 0.986529600925484 -8.76326432663161 0.986529600925484 -8.76326432663167 0.0377772293399138 69.7333191929708 
! Gamma         7.67861129669829 98.226570895607  7.40122462727822 98.2542664960959 
! Port Impedance         50               0                50               0                
3                              0.0547823950830816 70.0437212481299 0.984012744619002 -13.0970228625784 0.984012744619002 -13.0970228625784 0.0547866470583426 70.0092237503022 
! Gamma         9.0762852969015  146.736044432467 8.76940688238786 146.831969239869 
! Port Impedance         50               0                50               0                
4                              0.0716475860588122 68.1738867738604 0.981237395563806 -17.4286626212069 0.981237395563805 -17.4286626212069 0.0716531436415067 68.1247354970163 
! Gamma         10.4022685310884 195.304536730716 10.0726978555587 195.470027176986 
! Port Impedance         50               0                50               0                
5                              0.0881094139813346 65.3565996301431 0.978158512313661 -21.7525078398041 0.978158512313663 -21.7525078398041 0.0881153120834721 65.2926332437032 
! Gamma         11.7208495747831 243.899391353882 11.3726220498472 244.134260147369 
! Port Impedance         50               0                50               0                
6                              0.103998832031365 62.0558329882098 0.974790813339087 -26.0645476118628 0.974790813339087 -26.0645476118628 0.104004142348938 61.9767709225697 
! Gamma         13.0522765134054 292.500788672103 12.6869888841724 292.804584564878 
! Port Impedance         50               0                50               0                
7                              0.119189292715676 58.4852861844038 0.971169615099879 -30.361823919147 0.97116961509988 -30.361823919147 0.119193111341283 58.3906922209425 
! Gamma         14.403058080039  341.09692401875  14.020945331674  341.469565429815 
! Port Impedance         50               0                50               0                
8                              0.133579155217946 54.7567627674345 0.967339635149183 -34.6421425076032 0.967339635149182 -34.6421425076032 0.133580578689314 54.6460494090233 
! Gamma         15.7744859827353 389.680435212054 15.3751200249061 390.122290209541 
! Port Impedance         50               0                50               0                
9                              0.147084698203971 50.9343573779331 0.963350237539551 -38.9039492320172 0.963350237539552 -38.9039492320172 0.147082799771747 50.8067906063107 
! Gamma         17.1655856329624 438.246593734096 16.7482554760438 438.758407303365 
! Port Impedance         50               0                50               0                
10                             0.159636804139148 47.0573417162095 0.959252643561892 -43.1462658983038 0.959252643561892 -43.1462658983038 0.159630611430062 46.9120409271861 
! Gamma         18.5743302267275 486.792378058278 18.138243382918  487.37517813674  
! Port Impedance         50               0                50               0                
11                             0.171178985552482 43.1509561457701 0.95509795156327 -47.3686441780984 0.95509795156327 -47.3686441780984 0.171167459370899 42.9868893842014 
! Gamma         19.9982185546314 535.315961161873 19.5426078563754 535.970976191124 
! Port Impedance         50               0                50               0                
12                             0.18166591618378 39.2319643476778 0.950935617575116 -51.5711224305014 0.950935617575115 -51.5711224305014 0.181647930106542 39.047939359039  
! Gamma         21.4345842997631 583.816398467501 20.9587636229109 584.544991007891 
! Port Impedance         50               0                50               0                
13                             0.191062162056072 35.3117287590631 0.94681227371884 -55.7541805647122 0.94681227371884 -55.7541805647122 0.191036482546807 35.1063801750297 
! Gamma         22.8807757614879 632.293417836389 22.3841670437872 633.097032639675 
! Port Impedance         50               0                50               0                
14                             0.199341011254522 31.3980247830549 0.942770826989623 -59.9186921751168 0.942770826989622 -59.9186921751168 0.199306278047889 31.1697974016519 
! Gamma         24.3342647105148 680.747265815276 23.8164083656574 681.627389314751 
! Port Impedance         50               0                50               0                
15                             0.206483381353326 27.4961740677288 0.938849798911348 -64.0658746932951 0.938849798911348 -64.0658746932951 0.206438087825448 27.2433018677631 
! Gamma         25.7927121588575 729.178587557271 25.253267583252  730.136716699457 
! Port Impedance         50               0                50               0                
16                             0.212476812765432 23.6097912938082 0.935082870666318 -68.197238723881 0.935082870666317 -68.197238723881 0.21241928594656 23.3302716380578 
! Gamma         27.2540056354535 777.588329468225 26.6927458404326 778.625947847423 
! Port Impedance         50               0                50               0                
17                             0.217314564022279 19.7413023297157 0.931498599613819 -72.3145376893912 0.931498599613819 -72.3145376893912 0.217242943795744 19.4328644799408 
! Gamma         28.7162767090052 825.977658813689 28.1330795880317 827.096218816448 
! Port Impedance         50               0                50               0                
18                             0.220994824248817 15.8923227122343 0.928120274856757 -76.4197186373038 0.928120274856758 -76.4197186373039 0.220907041153368 15.5523895178205 
! Gamma         30.1779046048668 874.347896951498 29.572742404537  875.548806675865 
! Port Impedance         50               0                50               0                
19                             0.223520053378975 12.0639491883816 0.924965882679094 -80.5148748102038 0.924965882679095 -80.5148748102039 0.223413804259377 11.6895904002158 
! Gamma         31.637510009144  922.700464299537 31.0104380997327 923.985078332289 
! Port Impedance         50               0                50               0                
20                             0.224896455849505 8.25699737192793 0.92204815677091 -84.6022003103337 0.922048156770909 -84.6022003103337 0.224769176389053 7.84487257911545 
! Gamma         33.0939422158738 971.036835362187 32.4450878049895 972.406448725653 
! Port Impedance         50               0                50               0                
21                             0.225133588940964 4.47220778954185 0.919374692891418 -88.6839469845606 0.919374692891418 -88.6839469845606 0.224982421822284 4.01849631026199 
! Gamma         34.5462620210306 1019.35850270858 33.8758132669132 1020.81434724314 
! Port Impedance         50               0                50               0                
22                             0.224244103136865 0.710436754561686 0.916948112523175 -92.7623835350593 0.916948112523174 -92.7623835350593 0.224065860199607 0.210750974437041 
! Gamma         35.9937221544879 1067.66694859314 35.3019179700234 1069.21019139388 
! Port Impedance         50               0                50               0                
23                             0.222243609098644 -3.02715413089284 0.914766264738088 -96.8397567754959 0.914766264738087 -96.8397567754959 0.222034725320735 -3.57787670866567 
! Gamma         37.4357466675708 1115.96362331461 36.7228673594797 1117.59536661935 
! Port Impedance         50               0                50               0                
24                             0.219150663935744 -6.73889652758333 0.912822459703473 -100.918254925966 0.912822459703472 -100.918254925966 0.218907140317102 -7.34652888867424 
! Gamma         38.8719102989649 1164.2499291443  38.1382691084365 1165.97121144288 
! Port Impedance         50               0                50               0                
25                             0.214986867909302 -10.4223871070128 0.911105730941994 -104.999972878086 0.911105730941994 -104.999972878086 0.214704199248988 -11.0937847139387 
! Gamma         40.3019184913861 1212.52720902288 39.5478540800059 1214.33900702692 
! Port Impedance         50               0                50               0                
26                             0.209777062343526 -14.0742138201122 0.909601126322566 -109.086879391796 0.909601126322566 -109.086879391796 0.209450144303044 -14.8174351121729 
! Gamma         41.7255886052489 1260.79673906662 40.9514584521504 1262.6999703277  
! Port Impedance         50               0                50               0                
27                             0.203549619316387 -17.6896111967189 0.908290030024983 -113.18078628849 0.908290030024983 -113.18078628849 0.203172626793646 -18.5142036610427 
! Gamma         43.1428325871258 1309.05972426252 42.3490072555313 1311.05525020052 
! Port Impedance         50               0                50               0                
28                             0.196336815177201 -21.2620076343751 0.90715051906412 -117.283319785703 0.90715051906412 -117.283319785703 0.19590304042401 -22.1793838389463 
! Gamma         44.5536412723805 1357.31729658858 43.7404994837041 1359.40592582212 
! Port Impedance         50               0                50               0                
29                             0.188175282928227 -24.7824084199887 0.906157758589362 -121.395894229799 0.906157758589363 -121.395894229799 0.187676916272798 -25.8063475320514 
! Gamma         45.9580703594178 1405.570515068   45.1259948162761 1407.75300686974 
! Port Impedance         50               0                50               0                
30                             0.179106545142665 -28.2385259233395 0.905284439904941 -125.519688575548 0.905284439904942 -125.519688575548 0.17853437236064 -29.3858533549606 
! Gamma         47.3562280445029 1453.82036724904 46.5056019222642 1456.09743508249 
! Port Impedance         50               0                50               0                
31                             0.169177641477891 -31.613512801262 0.904501264145641 -129.655626074413 0.904501264145642 -129.655626074413 0.168520617520469 -32.9050375455343 
! Gamma         48.7482642420881 1502.06777175351 47.8794682789205 1504.44008676688 
! Port Impedance         50               0                50               0                
32                             0.158441889109957 -34.8840554240207 0.903777472625056 -133.804357682781 0.903777472625056 -133.804357682781 0.157686523868561 -36.3458878379854 
! Gamma         50.1343612805794 1550.31358156308 49.2477714015779 1552.78177600357 
! Port Impedance         50               0                50               0                
33                             0.146959860102484 -38.0174037082575 0.903081422357434 -137.96624977798 0.903081422357434 -137.96624977798 0.146089310292247 -39.6828469503313 
! Gamma         51.5147259509916 1598.55858773331 50.6107113570523 1601.12325826973 
! Port Impedance         50               0                50               0                
34                             0.134800750374994 -40.966567194073 0.90238120200246 -142.141376759381 0.902381202002459 -142.141376759381 0.133793436852631 -42.8788919397932 
! Gamma         52.8895827736512 1646.8035234939  51.9685044273813 1649.46523433764 
! Port Impedance         50               0                50               0                
35                             0.122044499538769 -43.6622135309525 0.901645279914214 -146.329519101069 0.901645279914214 -146.329519101069 0.120871929389566 -45.8788171763414 
! Gamma         54.259168354792  1695.04906834635 53.3213778311347 1697.80835424706 
! Port Impedance         50               0                50               0                
36                             0.108785419754346 -45.998341652692 0.900843172159634 -150.530167332701 0.900843172159634 -150.530167332701 0.107408618410386 -48.5970943887608 
! Gamma         55.6237266945591 1743.29585224816 54.6695653101395 1746.15322130776 
! Port Impedance         50               0                50               0                
37                             0.0951390108358659 -47.8055309365492 0.899946114737082 -154.742532310314 0.899946114737082 -154.742532310314 0.0935024078175127 -50.8944951953758 
! Gamma         56.9835053307456 1791.5444597091  56.0133035443387 1794.50039597924 
! Port Impedance         50               0                50               0                
38                             0.0812559293465277 -48.797809564589 0.898927721037727 -158.9655619508  0.898927721037727 -158.9655619508  0.0792763447194289 -52.5294920206618 
! Gamma         58.3387522027897 1839.79543370136 57.3528292201486 1842.85039962014 
! Port Impedance         50               0                50               0                
39                             0.0673533074761562 -48.4598331322431 0.897764603273259 -163.19796439898 0.897764603273259 -163.19796439898 0.0648991310929101 -53.0473643703313 
! Gamma         59.6897131370489 1888.04927942082 58.6883766935336 1891.20371805722 
! Port Impedance         50               0                50               0                
40                             0.0537920743521186 -45.7929922314831 0.89643693541209 -167.43823733816 0.896436935412089 -167.43823733816 0.0506431769068358 -51.4976010806883 
! Gamma         61.0366298560046 1936.3064678185  60.0201761538815 1939.56080493459 
! Port Impedance         50               0                50               0                
41                             0.0412855861623944 -38.7530995153254 0.894928935432347 -171.684702895368 0.894928935432347 -171.684702895368 0.0370681561234518 -45.6312898442011 
! Gamma         62.3797384357894 1984.56743888756 61.3484521955865 1987.92208484715 
! Port Impedance         50               0                50               0                
42                             0.0314521369391012 -23.5235897818565 0.893229246501207 -175.9355473287  0.893229246501206 -175.9355473287  0.025691032533019 -29.7607434711847 
! Gamma         63.7192681390751 2032.83260476384 62.6734227517793 2036.28795624392 
! Port Impedance         50               0                50               0                
43                             0.0275078449242186 2.1029552056974  0.891331200055431 179.811135552821 0.891331200055431 179.811135552821 0.0207764141364379 3.58748284029369 
! Gamma         65.0554405583027 2081.10235251718 63.9952983163869 2084.65879410218 
! Port Impedance         50               0                50               0                
44                             0.0316913015374741 27.3085321919265 0.889232948490232 175.557298483075 0.889232948490232 175.557298483075 0.0262010633480475 35.8600498935317 
! Gamma         66.3884690227913 2129.37704675918 65.3142814093277 2133.03495237659 
! Port Impedance         50               0                50               0                
45                             0.0414543276551526 41.9925422589334 0.886937460946014 171.304893734015 0.886937460946012 171.304893734015 0.0375604748731002 50.7486242283093 
! Gamma         67.718558217433  2177.65703203318 66.6305662453234 2181.41676624889 
! Port Impedance         50               0                50               0                
46                             0.0536146073490853 48.7398212520227 0.884452382074842 167.055826454553 0.884452382074843 167.055826454553 0.0507933030054695 56.2124745094713 
! Gamma         69.0459039721473 2225.94263497219 67.9443385563881 2229.80455416081 
! Port Impedance         50               0                50               0                
47                             0.0666185878134926 51.2764352686673 0.881789760126507 162.811909793638 0.881789760126507 162.811909793638 0.0644934003274761 57.6036801711214 
! Gamma         70.370693200781  2274.23416624879 69.2557755519888 2278.19861967319 
! Port Impedance         50               0                50               0                
48                             0.0797847954789667 51.5685875996513 0.878965656711827 158.574823150435 0.878965656711827 158.574823150435 0.0781381150257438 57.031928368193  
! Gamma         71.6931039435026 2322.53192238216 70.5650459801712 2326.59925313511 
! Port Impedance         50               0                50               0                
49                             0.092770293145695 50.5782567240788 0.875999655673123 154.346074741836 0.875999655673122 154.346074741836 0.0914730338151297 55.3968299817738 
! Gamma         73.0133055042492 2370.83618732796 71.8723102753184 2375.0067331971  
! Port Impedance         50               0                50               0                
50                             0.105371703696339 48.804033005602  0.872914292267663 150.126969455317 0.872914292267663 150.126969455317 0.104342774360324 53.1324751079674 
! Gamma         74.3314586547097 2419.14723394115 73.1777207605154 2423.42132818268 
! Port Impedance         50               0                50               0                
51                             0.117451253794635 46.5238870904367 0.86973442610831 145.918582716225 0.869734426108311 145.918582716225 0.116636809756174 50.4711670774155 
! Gamma         75.6477158910195 2467.46532528417 74.4814219046646 2471.84329730311 
! Port Impedance         50               0                50               0                
52                             0.128906621160913 43.9033030669364 0.86648658196451 141.721740815427 0.866486581964509 141.721740815427 0.128269134290816 47.5477638076388 
! Gamma         76.9622217311203 2515.79071578774 75.783550614831  2520.27289177159 
! Port Impedance         50               0                50               0                
53                             0.139657367380478 41.046392849288  0.86319828169351 137.53700789276  0.863198281693509 137.53700789276  0.139169563097212 44.4457368697424 
! Gamma         78.2751130365885 2564.1236523248  77.0842365480037 2568.71035577438 
! Port Impedance         50               0                50               0                
54                             0.14963824270562 38.0217286416549 0.859897388483108 133.364679510318 0.859897388483107 133.364679510318 0.14927955975245 41.2194635995319 
! Gamma         79.5865193557865 2612.46437514213 78.3836024428082 2617.15592737276 
! Port Impedance         50               0                50               0                
55                             0.158795570340339 34.8762283952544 0.856611481552978 129.204782547518 0.856611481552977 129.204782547518 0.158549996798138 37.9058663910955 
! Gamma         80.8965632751661 2660.81311871828 79.6817644614609 2665.60983928507 
! Port Impedance         50               0                50               0                
56                             0.167085102830141 31.6430369318943 0.853367275853356 125.057080974099 0.853367275853355 125.057080974099 0.166939799797835 34.5308864111615 
! Gamma         82.2053607769397 2709.17011250308 80.9788325284605 2714.07231960061 
! Port Impedance         50               0                50               0                
57                             0.174470622639706 28.3462188138551 0.850190097460276 120.921086933292 0.850190097460276 120.921086933292 0.174415018419167 31.1132837399847 
! Gamma         83.5130215957764 2757.53558162102 82.2749106776092 2762.54359240368 
! Port Impedance         50               0                50               0                
58                             0.180922940987519 25.0036754160722 0.847103421627408 116.796076491371 0.847103421627409 116.796076491371 0.180948117072828 27.6669766495429 
! Gamma         84.8196495726021 2805.90974745668 83.5700973837385 2811.0238783511  
! Port Impedance         50               0                50               0                
59                             0.186419125876209 21.6290315579331 0.844128477063328 112.681109373082 0.844128477063328 112.681109373082 0.186517389948886 24.2025459269297 
! Gamma         86.1253429996935 2854.29282820603 84.8644858988326 2859.51339516748 
! Port Impedance         50               0                50               0                
60                             0.190941876200264 18.2329033074444 0.841283917157953 108.575052002371 0.841283917157953 108.575052002371 0.191106458473151 20.7282440963557 
! Gamma         87.4301949573572 2902.68503934855 86.158164568247  2908.01235809574 
! Port Impedance         50               0                50               0                
61                             0.194479002154702 14.8237837834535 0.838585556650029 104.476603199349 0.838585556650029 104.476603199349 0.194703835177308 17.2507026657451 
! Gamma         88.7342936395148 2951.08659409407 87.4512171421929 2956.52098030085 
! Port Impedance         50               0                50               0                
62                             0.197022994084945 11.4086886471173 0.836046170709561 100.384321928646 0.836046170709561 100.384321928646 0.197302550331671 13.7754519005298 
! Gamma         90.0377226677991 2999.49770375564 88.7437230739251 3005.0394732333  
! Port Impedance         50               0                50               0                
63                             0.198570673097611 7.99364949766614 0.833675352498425 96.2966565547653 0.833675352498426 96.2966565547653 0.198899843422842 10.3073240867117 
! Gamma         91.3405613920637 3047.91857809823 90.0357578053711 3053.56804694149 
! Port Impedance         50               0                50               0                
64                             0.199122921951724 4.58411267754426 0.831479424980396 92.2119751198249 0.831479424980396 92.2119751198249 0.199496923535228 6.85078661849534 
! Gamma         92.6428851770564 3096.3494256379  91.3273930349628 3102.10691035562 
! Port Impedance         50               0                50               0                
65                             0.198684496931494 1.18528331837489 0.829461402922651 88.128596216293  0.829461402922651 88.128596216293  0.199098802944656 3.4102373390299  
! Gamma         93.9447656746917 3144.79045393456 92.618696984125  3150.6562715518  
! Port Impedance         50               0                50               0                
66                             0.197263921978326 -2.1975553346199 0.827621001577775 84.0448200744212 0.827621001577774 84.0448200744211 0.197714207591693 -0.00971280875355503 
! Gamma         95.2462710853375 3193.24186981678 93.9097346352315 3199.2163379749  
! Port Impedance         50               0                50               0                
67                             0.19487346623611 -5.55872181597303 0.825954689323494 79.9589595206024 0.825954689323494 79.9589595206024 0.195355567210371 -3.40394777023577 
! Gamma         96.5474664028359 3241.70387960927 95.2005679680582 3247.78731664379 
! Port Impedance         50               0                50               0                
68                             0.191529205973855 -8.89179058259243 0.824455782445839 75.8693704792219 0.824455782445839 75.8693704792219 0.192039087191625 -6.76652247347377 
! Gamma         97.8484136456363 3290.1766893419  96.4912561792316 3296.36941433174 
! Port Impedance         50               0                50               0                
69                             0.187251172189564 -12.1891921808343 0.823114581133968 71.7744817016135 0.823114581133968 71.7744817016135 0.18778490426626 -10.0902806035069 
! Gamma         99.1491720771567 3338.66050490469 97.7818558869812 3344.96283773741 
! Port Impedance         50               0                50               0                
70                             0.182063586461643 -15.4417235651448 0.821918546549652 67.672823385847  0.821918546549652 67.672823385847  0.182617329124103 -13.3663795889497 
! Gamma         100.449798411962 3387.155532226   99.0724213276113 3393.56779363023 
! Port Impedance         50               0                50               0                
71                             0.175995190959441 -18.6379189635945 0.82085251936166 63.5630543392589 0.82085251936166 63.5630543392589 0.176565182251899 -16.5836744116178 
! Gamma         101.750347010261 3435.66197740547 100.363004538998 3442.18448898018 
! Port Impedance         50               0                50               0                
72                             0.169079685043983 -21.7632086672497 0.819898980372035 59.4439872952538 0.819898980372033 59.4439872952538 0.169662235669938 -19.7278888420959 
! Gamma         103.050870059157 3484.18004685354 101.653655531802 3490.81313108952 
! Port Impedance         50               0                50               0                
73                             0.161356293089656 -24.7987549520131 0.819038353697917 55.3146119644166 0.819038353697917 55.3146119644166 0.161947785302114 -22.7804647919758 
! Gamma         104.351417746093 3532.70994740303 102.944422450441 3539.45392769424 
! Port Impedance         50               0                50               0                
74                             0.152870510280171 -27.719790476805 0.818249352360034 51.1741153639911 0.818249352360035 51.1741153639911 0.153467400678   -25.7169172597186 
! Gamma         105.652038417637 3581.2518864207  104.235351727038 3588.10708707179 
! Port Impedance         50               0                50               0                
75                             0.143675112942032 -30.4931755989351 0.817509365065422 47.0218989430754 0.817509365065422 47.0218989430753 0.144273938193071 -28.5044147980051 
! Gamma         106.952778731333 3629.8060719102  105.526488220328 3636.77281813144 
! Port Impedance         50               0                50               0                
76                             0.133831592720525 -33.0737009713946 0.816794881449831 42.8575920079127 0.816794881449831 42.8575920079127 0.13442897635303 -31.0981180619319 
! Gamma         108.253683795878 3678.37271259438 106.817875349836 3685.4513305008  
! Port Impedance         50               0                50               0                
77                             0.1234123097518  -35.398321620357 0.816081951136638 38.6810609604757 0.816081951136639 38.6810609604757 0.124004966103388 -33.4354743072822 
! Gamma         109.554797304593 3726.95201801491 108.109555221478 3734.14283460369 
! Port Impedance         50               0                50               0                
78                             0.112503921805468 -37.3768853983384 0.815346669771851 34.4924138960685 0.81534666977185 34.4924138960685 0.113088648480181 -35.4270537059556 
! Gamma         110.856161658011 3775.5441986023  109.401568741636 3782.84754174539 
! Port Impedance         50               0                50               0                
79                             0.101213169590797 -38.8767573661363 0.814565682840291 30.2920001775595 0.814565682840292 30.2920001775595 0.10178680861069 -36.9413757988919 
! Gamma         112.157818079962 3824.14946574884 110.693955727959 3831.56566416852 
! Port Impedance         50               0                50               0                
80                             0.089677182748509 -39.69658500087  0.81371669578007 26.0804046975641 0.81371669578007 26.0804046975641 0.0902365034595022 -37.7790680024542 
! Gamma         113.459806726677 3872.76803189201 111.986755010255 3880.29741513328 
! Port Impedance         50               0                50               0                
81                             0.078082784506442 -39.5206857093609 0.812778976857403 21.8584366787922 0.812778976857402 21.8584366787922 0.0786241734448884 -37.6280353737817 
! Gamma         114.762166786779 3921.40011056968 113.280004527235 3929.04300897751 
! Port Impedance         50               0                50               0                
82                             0.0667042020875615 -37.8406722581748 0.811733837718782 17.6271130244966 0.811733837718782 17.6271130244966 0.0672228746977601 -35.9866066292585 
! Gamma         116.064936577763 3970.04591650071 114.573741413471 3977.80266117744 
! Port Impedance         50               0                50               0                
83                             0.0559780452349701 -33.8352591067216 0.81056507567822 13.3876364184415 0.81056507567822 13.3876364184416 0.0564661015022201 -32.0458131746151 
! Gamma         117.368153634086 4018.70566562959 115.868002085668 4026.57658841355 
! Port Impedance         50               0                50               0                